<?xml version="1.0"?>
<VTKFile type="UnstructuredGrid"  version="0.1"  >
<UnstructuredGrid>
<Piece  NumberOfPoints="4961" NumberOfCells="24000">
<Points>
<DataArray  type="Float64"  NumberOfComponents="3"  format="ascii">0 0 0  0.1 0 0  0.2 0 0  0.3 0 0  0.4 0 0  0.5 0 0  0.6 0 0  0.7 0 0  0.8 0 0  0.9 0 0  1 0 0  1.1 0 0  1.2 0 0  1.3 0 0  1.4 0 0  1.5 0 0  1.6 0 0  1.7 0 0  1.8 0 0  1.9 0 0  2 0 0  2.1 0 0  2.2 0 0  2.3 0 0  2.4 0 0  2.5 0 0  2.6 0 0  2.7 0 0  2.8 0 0  2.9 0 0  3 0 0  3.1 0 0  3.2 0 0  3.3 0 0  3.4 0 0  3.5 0 0  3.6 0 0  3.7 0 0  3.8 0 0  3.9 0 0  4 0 0  0 0.1 0  0.1 0.1 0  0.2 0.1 0  0.3 0.1 0  0.4 0.1 0  0.5 0.1 0  0.6 0.1 0  0.7 0.1 0  0.8 0.1 0  0.9 0.1 0  1 0.1 0  1.1 0.1 0  1.2 0.1 0  1.3 0.1 0  1.4 0.1 0  1.5 0.1 0  1.6 0.1 0  1.7 0.1 0  1.8 0.1 0  1.9 0.1 0  2 0.1 0  2.1 0.1 0  2.2 0.1 0  2.3 0.1 0  2.4 0.1 0  2.5 0.1 0  2.6 0.1 0  2.7 0.1 0  2.8 0.1 0  2.9 0.1 0  3 0.1 0  3.1 0.1 0  3.2 0.1 0  3.3 0.1 0  3.4 0.1 0  3.5 0.1 0  3.6 0.1 0  3.7 0.1 0  3.8 0.1 0  3.9 0.1 0  4 0.1 0  0 0.2 0  0.1 0.2 0  0.2 0.2 0  0.3 0.2 0  0.4 0.2 0  0.5 0.2 0  0.6 0.2 0  0.7 0.2 0  0.8 0.2 0  0.9 0.2 0  1 0.2 0  1.1 0.2 0  1.2 0.2 0  1.3 0.2 0  1.4 0.2 0  1.5 0.2 0  1.6 0.2 0  1.7 0.2 0  1.8 0.2 0  1.9 0.2 0  2 0.2 0  2.1 0.2 0  2.2 0.2 0  2.3 0.2 0  2.4 0.2 0  2.5 0.2 0  2.6 0.2 0  2.7 0.2 0  2.8 0.2 0  2.9 0.2 0  3 0.2 0  3.1 0.2 0  3.2 0.2 0  3.3 0.2 0  3.4 0.2 0  3.5 0.2 0  3.6 0.2 0  3.7 0.2 0  3.8 0.2 0  3.9 0.2 0  4 0.2 0  0 0.3 0  0.1 0.3 0  0.2 0.3 0  0.3 0.3 0  0.4 0.3 0  0.5 0.3 0  0.6 0.3 0  0.7 0.3 0  0.8 0.3 0  0.9 0.3 0  1 0.3 0  1.1 0.3 0  1.2 0.3 0  1.3 0.3 0  1.4 0.3 0  1.5 0.3 0  1.6 0.3 0  1.7 0.3 0  1.8 0.3 0  1.9 0.3 0  2 0.3 0  2.1 0.3 0  2.2 0.3 0  2.3 0.3 0  2.4 0.3 0  2.5 0.3 0  2.6 0.3 0  2.7 0.3 0  2.8 0.3 0  2.9 0.3 0  3 0.3 0  3.1 0.3 0  3.2 0.3 0  3.3 0.3 0  3.4 0.3 0  3.5 0.3 0  3.6 0.3 0  3.7 0.3 0  3.8 0.3 0  3.9 0.3 0  4 0.3 0  0 0.4 0  0.1 0.4 0  0.2 0.4 0  0.3 0.4 0  0.4 0.4 0  0.5 0.4 0  0.6 0.4 0  0.7 0.4 0  0.8 0.4 0  0.9 0.4 0  1 0.4 0  1.1 0.4 0  1.2 0.4 0  1.3 0.4 0  1.4 0.4 0  1.5 0.4 0  1.6 0.4 0  1.7 0.4 0  1.8 0.4 0  1.9 0.4 0  2 0.4 0  2.1 0.4 0  2.2 0.4 0  2.3 0.4 0  2.4 0.4 0  2.5 0.4 0  2.6 0.4 0  2.7 0.4 0  2.8 0.4 0  2.9 0.4 0  3 0.4 0  3.1 0.4 0  3.2 0.4 0  3.3 0.4 0  3.4 0.4 0  3.5 0.4 0  3.6 0.4 0  3.7 0.4 0  3.8 0.4 0  3.9 0.4 0  4 0.4 0  0 0.5 0  0.1 0.5 0  0.2 0.5 0  0.3 0.5 0  0.4 0.5 0  0.5 0.5 0  0.6 0.5 0  0.7 0.5 0  0.8 0.5 0  0.9 0.5 0  1 0.5 0  1.1 0.5 0  1.2 0.5 0  1.3 0.5 0  1.4 0.5 0  1.5 0.5 0  1.6 0.5 0  1.7 0.5 0  1.8 0.5 0  1.9 0.5 0  2 0.5 0  2.1 0.5 0  2.2 0.5 0  2.3 0.5 0  2.4 0.5 0  2.5 0.5 0  2.6 0.5 0  2.7 0.5 0  2.8 0.5 0  2.9 0.5 0  3 0.5 0  3.1 0.5 0  3.2 0.5 0  3.3 0.5 0  3.4 0.5 0  3.5 0.5 0  3.6 0.5 0  3.7 0.5 0  3.8 0.5 0  3.9 0.5 0  4 0.5 0  0 0.6 0  0.1 0.6 0  0.2 0.6 0  0.3 0.6 0  0.4 0.6 0  0.5 0.6 0  0.6 0.6 0  0.7 0.6 0  0.8 0.6 0  0.9 0.6 0  1 0.6 0  1.1 0.6 0  1.2 0.6 0  1.3 0.6 0  1.4 0.6 0  1.5 0.6 0  1.6 0.6 0  1.7 0.6 0  1.8 0.6 0  1.9 0.6 0  2 0.6 0  2.1 0.6 0  2.2 0.6 0  2.3 0.6 0  2.4 0.6 0  2.5 0.6 0  2.6 0.6 0  2.7 0.6 0  2.8 0.6 0  2.9 0.6 0  3 0.6 0  3.1 0.6 0  3.2 0.6 0  3.3 0.6 0  3.4 0.6 0  3.5 0.6 0  3.6 0.6 0  3.7 0.6 0  3.8 0.6 0  3.9 0.6 0  4 0.6 0  0 0.7 0  0.1 0.7 0  0.2 0.7 0  0.3 0.7 0  0.4 0.7 0  0.5 0.7 0  0.6 0.7 0  0.7 0.7 0  0.8 0.7 0  0.9 0.7 0  1 0.7 0  1.1 0.7 0  1.2 0.7 0  1.3 0.7 0  1.4 0.7 0  1.5 0.7 0  1.6 0.7 0  1.7 0.7 0  1.8 0.7 0  1.9 0.7 0  2 0.7 0  2.1 0.7 0  2.2 0.7 0  2.3 0.7 0  2.4 0.7 0  2.5 0.7 0  2.6 0.7 0  2.7 0.7 0  2.8 0.7 0  2.9 0.7 0  3 0.7 0  3.1 0.7 0  3.2 0.7 0  3.3 0.7 0  3.4 0.7 0  3.5 0.7 0  3.6 0.7 0  3.7 0.7 0  3.8 0.7 0  3.9 0.7 0  4 0.7 0  0 0.8 0  0.1 0.8 0  0.2 0.8 0  0.3 0.8 0  0.4 0.8 0  0.5 0.8 0  0.6 0.8 0  0.7 0.8 0  0.8 0.8 0  0.9 0.8 0  1 0.8 0  1.1 0.8 0  1.2 0.8 0  1.3 0.8 0  1.4 0.8 0  1.5 0.8 0  1.6 0.8 0  1.7 0.8 0  1.8 0.8 0  1.9 0.8 0  2 0.8 0  2.1 0.8 0  2.2 0.8 0  2.3 0.8 0  2.4 0.8 0  2.5 0.8 0  2.6 0.8 0  2.7 0.8 0  2.8 0.8 0  2.9 0.8 0  3 0.8 0  3.1 0.8 0  3.2 0.8 0  3.3 0.8 0  3.4 0.8 0  3.5 0.8 0  3.6 0.8 0  3.7 0.8 0  3.8 0.8 0  3.9 0.8 0  4 0.8 0  0 0.9 0  0.1 0.9 0  0.2 0.9 0  0.3 0.9 0  0.4 0.9 0  0.5 0.9 0  0.6 0.9 0  0.7 0.9 0  0.8 0.9 0  0.9 0.9 0  1 0.9 0  1.1 0.9 0  1.2 0.9 0  1.3 0.9 0  1.4 0.9 0  1.5 0.9 0  1.6 0.9 0  1.7 0.9 0  1.8 0.9 0  1.9 0.9 0  2 0.9 0  2.1 0.9 0  2.2 0.9 0  2.3 0.9 0  2.4 0.9 0  2.5 0.9 0  2.6 0.9 0  2.7 0.9 0  2.8 0.9 0  2.9 0.9 0  3 0.9 0  3.1 0.9 0  3.2 0.9 0  3.3 0.9 0  3.4 0.9 0  3.5 0.9 0  3.6 0.9 0  3.7 0.9 0  3.8 0.9 0  3.9 0.9 0  4 0.9 0  0 1 0  0.1 1 0  0.2 1 0  0.3 1 0  0.4 1 0  0.5 1 0  0.6 1 0  0.7 1 0  0.8 1 0  0.9 1 0  1 1 0  1.1 1 0  1.2 1 0  1.3 1 0  1.4 1 0  1.5 1 0  1.6 1 0  1.7 1 0  1.8 1 0  1.9 1 0  2 1 0  2.1 1 0  2.2 1 0  2.3 1 0  2.4 1 0  2.5 1 0  2.6 1 0  2.7 1 0  2.8 1 0  2.9 1 0  3 1 0  3.1 1 0  3.2 1 0  3.3 1 0  3.4 1 0  3.5 1 0  3.6 1 0  3.7 1 0  3.8 1 0  3.9 1 0  4 1 0  0 0 0.1  0.1 0 0.1  0.2 0 0.1  0.3 0 0.1  0.4 0 0.1  0.5 0 0.1  0.6 0 0.1  0.7 0 0.1  0.8 0 0.1  0.9 0 0.1  1 0 0.1  1.1 0 0.1  1.2 0 0.1  1.3 0 0.1  1.4 0 0.1  1.5 0 0.1  1.6 0 0.1  1.7 0 0.1  1.8 0 0.1  1.9 0 0.1  2 0 0.1  2.1 0 0.1  2.2 0 0.1  2.3 0 0.1  2.4 0 0.1  2.5 0 0.1  2.6 0 0.1  2.7 0 0.1  2.8 0 0.1  2.9 0 0.1  3 0 0.1  3.1 0 0.1  3.2 0 0.1  3.3 0 0.1  3.4 0 0.1  3.5 0 0.1  3.6 0 0.1  3.7 0 0.1  3.8 0 0.1  3.9 0 0.1  4 0 0.1  0 0.1 0.1  0.1 0.1 0.1  0.2 0.1 0.1  0.3 0.1 0.1  0.4 0.1 0.1  0.5 0.1 0.1  0.6 0.1 0.1  0.7 0.1 0.1  0.8 0.1 0.1  0.9 0.1 0.1  1 0.1 0.1  1.1 0.1 0.1  1.2 0.1 0.1  1.3 0.1 0.1  1.4 0.1 0.1  1.5 0.1 0.1  1.6 0.1 0.1  1.7 0.1 0.1  1.8 0.1 0.1  1.9 0.1 0.1  2 0.1 0.1  2.1 0.1 0.1  2.2 0.1 0.1  2.3 0.1 0.1  2.4 0.1 0.1  2.5 0.1 0.1  2.6 0.1 0.1  2.7 0.1 0.1  2.8 0.1 0.1  2.9 0.1 0.1  3 0.1 0.1  3.1 0.1 0.1  3.2 0.1 0.1  3.3 0.1 0.1  3.4 0.1 0.1  3.5 0.1 0.1  3.6 0.1 0.1  3.7 0.1 0.1  3.8 0.1 0.1  3.9 0.1 0.1  4 0.1 0.1  0 0.2 0.1  0.1 0.2 0.1  0.2 0.2 0.1  0.3 0.2 0.1  0.4 0.2 0.1  0.5 0.2 0.1  0.6 0.2 0.1  0.7 0.2 0.1  0.8 0.2 0.1  0.9 0.2 0.1  1 0.2 0.1  1.1 0.2 0.1  1.2 0.2 0.1  1.3 0.2 0.1  1.4 0.2 0.1  1.5 0.2 0.1  1.6 0.2 0.1  1.7 0.2 0.1  1.8 0.2 0.1  1.9 0.2 0.1  2 0.2 0.1  2.1 0.2 0.1  2.2 0.2 0.1  2.3 0.2 0.1  2.4 0.2 0.1  2.5 0.2 0.1  2.6 0.2 0.1  2.7 0.2 0.1  2.8 0.2 0.1  2.9 0.2 0.1  3 0.2 0.1  3.1 0.2 0.1  3.2 0.2 0.1  3.3 0.2 0.1  3.4 0.2 0.1  3.5 0.2 0.1  3.6 0.2 0.1  3.7 0.2 0.1  3.8 0.2 0.1  3.9 0.2 0.1  4 0.2 0.1  0 0.3 0.1  0.1 0.3 0.1  0.2 0.3 0.1  0.3 0.3 0.1  0.4 0.3 0.1  0.5 0.3 0.1  0.6 0.3 0.1  0.7 0.3 0.1  0.8 0.3 0.1  0.9 0.3 0.1  1 0.3 0.1  1.1 0.3 0.1  1.2 0.3 0.1  1.3 0.3 0.1  1.4 0.3 0.1  1.5 0.3 0.1  1.6 0.3 0.1  1.7 0.3 0.1  1.8 0.3 0.1  1.9 0.3 0.1  2 0.3 0.1  2.1 0.3 0.1  2.2 0.3 0.1  2.3 0.3 0.1  2.4 0.3 0.1  2.5 0.3 0.1  2.6 0.3 0.1  2.7 0.3 0.1  2.8 0.3 0.1  2.9 0.3 0.1  3 0.3 0.1  3.1 0.3 0.1  3.2 0.3 0.1  3.3 0.3 0.1  3.4 0.3 0.1  3.5 0.3 0.1  3.6 0.3 0.1  3.7 0.3 0.1  3.8 0.3 0.1  3.9 0.3 0.1  4 0.3 0.1  0 0.4 0.1  0.1 0.4 0.1  0.2 0.4 0.1  0.3 0.4 0.1  0.4 0.4 0.1  0.5 0.4 0.1  0.6 0.4 0.1  0.7 0.4 0.1  0.8 0.4 0.1  0.9 0.4 0.1  1 0.4 0.1  1.1 0.4 0.1  1.2 0.4 0.1  1.3 0.4 0.1  1.4 0.4 0.1  1.5 0.4 0.1  1.6 0.4 0.1  1.7 0.4 0.1  1.8 0.4 0.1  1.9 0.4 0.1  2 0.4 0.1  2.1 0.4 0.1  2.2 0.4 0.1  2.3 0.4 0.1  2.4 0.4 0.1  2.5 0.4 0.1  2.6 0.4 0.1  2.7 0.4 0.1  2.8 0.4 0.1  2.9 0.4 0.1  3 0.4 0.1  3.1 0.4 0.1  3.2 0.4 0.1  3.3 0.4 0.1  3.4 0.4 0.1  3.5 0.4 0.1  3.6 0.4 0.1  3.7 0.4 0.1  3.8 0.4 0.1  3.9 0.4 0.1  4 0.4 0.1  0 0.5 0.1  0.1 0.5 0.1  0.2 0.5 0.1  0.3 0.5 0.1  0.4 0.5 0.1  0.5 0.5 0.1  0.6 0.5 0.1  0.7 0.5 0.1  0.8 0.5 0.1  0.9 0.5 0.1  1 0.5 0.1  1.1 0.5 0.1  1.2 0.5 0.1  1.3 0.5 0.1  1.4 0.5 0.1  1.5 0.5 0.1  1.6 0.5 0.1  1.7 0.5 0.1  1.8 0.5 0.1  1.9 0.5 0.1  2 0.5 0.1  2.1 0.5 0.1  2.2 0.5 0.1  2.3 0.5 0.1  2.4 0.5 0.1  2.5 0.5 0.1  2.6 0.5 0.1  2.7 0.5 0.1  2.8 0.5 0.1  2.9 0.5 0.1  3 0.5 0.1  3.1 0.5 0.1  3.2 0.5 0.1  3.3 0.5 0.1  3.4 0.5 0.1  3.5 0.5 0.1  3.6 0.5 0.1  3.7 0.5 0.1  3.8 0.5 0.1  3.9 0.5 0.1  4 0.5 0.1  0 0.6 0.1  0.1 0.6 0.1  0.2 0.6 0.1  0.3 0.6 0.1  0.4 0.6 0.1  0.5 0.6 0.1  0.6 0.6 0.1  0.7 0.6 0.1  0.8 0.6 0.1  0.9 0.6 0.1  1 0.6 0.1  1.1 0.6 0.1  1.2 0.6 0.1  1.3 0.6 0.1  1.4 0.6 0.1  1.5 0.6 0.1  1.6 0.6 0.1  1.7 0.6 0.1  1.8 0.6 0.1  1.9 0.6 0.1  2 0.6 0.1  2.1 0.6 0.1  2.2 0.6 0.1  2.3 0.6 0.1  2.4 0.6 0.1  2.5 0.6 0.1  2.6 0.6 0.1  2.7 0.6 0.1  2.8 0.6 0.1  2.9 0.6 0.1  3 0.6 0.1  3.1 0.6 0.1  3.2 0.6 0.1  3.3 0.6 0.1  3.4 0.6 0.1  3.5 0.6 0.1  3.6 0.6 0.1  3.7 0.6 0.1  3.8 0.6 0.1  3.9 0.6 0.1  4 0.6 0.1  0 0.7 0.1  0.1 0.7 0.1  0.2 0.7 0.1  0.3 0.7 0.1  0.4 0.7 0.1  0.5 0.7 0.1  0.6 0.7 0.1  0.7 0.7 0.1  0.8 0.7 0.1  0.9 0.7 0.1  1 0.7 0.1  1.1 0.7 0.1  1.2 0.7 0.1  1.3 0.7 0.1  1.4 0.7 0.1  1.5 0.7 0.1  1.6 0.7 0.1  1.7 0.7 0.1  1.8 0.7 0.1  1.9 0.7 0.1  2 0.7 0.1  2.1 0.7 0.1  2.2 0.7 0.1  2.3 0.7 0.1  2.4 0.7 0.1  2.5 0.7 0.1  2.6 0.7 0.1  2.7 0.7 0.1  2.8 0.7 0.1  2.9 0.7 0.1  3 0.7 0.1  3.1 0.7 0.1  3.2 0.7 0.1  3.3 0.7 0.1  3.4 0.7 0.1  3.5 0.7 0.1  3.6 0.7 0.1  3.7 0.7 0.1  3.8 0.7 0.1  3.9 0.7 0.1  4 0.7 0.1  0 0.8 0.1  0.1 0.8 0.1  0.2 0.8 0.1  0.3 0.8 0.1  0.4 0.8 0.1  0.5 0.8 0.1  0.6 0.8 0.1  0.7 0.8 0.1  0.8 0.8 0.1  0.9 0.8 0.1  1 0.8 0.1  1.1 0.8 0.1  1.2 0.8 0.1  1.3 0.8 0.1  1.4 0.8 0.1  1.5 0.8 0.1  1.6 0.8 0.1  1.7 0.8 0.1  1.8 0.8 0.1  1.9 0.8 0.1  2 0.8 0.1  2.1 0.8 0.1  2.2 0.8 0.1  2.3 0.8 0.1  2.4 0.8 0.1  2.5 0.8 0.1  2.6 0.8 0.1  2.7 0.8 0.1  2.8 0.8 0.1  2.9 0.8 0.1  3 0.8 0.1  3.1 0.8 0.1  3.2 0.8 0.1  3.3 0.8 0.1  3.4 0.8 0.1  3.5 0.8 0.1  3.6 0.8 0.1  3.7 0.8 0.1  3.8 0.8 0.1  3.9 0.8 0.1  4 0.8 0.1  0 0.9 0.1  0.1 0.9 0.1  0.2 0.9 0.1  0.3 0.9 0.1  0.4 0.9 0.1  0.5 0.9 0.1  0.6 0.9 0.1  0.7 0.9 0.1  0.8 0.9 0.1  0.9 0.9 0.1  1 0.9 0.1  1.1 0.9 0.1  1.2 0.9 0.1  1.3 0.9 0.1  1.4 0.9 0.1  1.5 0.9 0.1  1.6 0.9 0.1  1.7 0.9 0.1  1.8 0.9 0.1  1.9 0.9 0.1  2 0.9 0.1  2.1 0.9 0.1  2.2 0.9 0.1  2.3 0.9 0.1  2.4 0.9 0.1  2.5 0.9 0.1  2.6 0.9 0.1  2.7 0.9 0.1  2.8 0.9 0.1  2.9 0.9 0.1  3 0.9 0.1  3.1 0.9 0.1  3.2 0.9 0.1  3.3 0.9 0.1  3.4 0.9 0.1  3.5 0.9 0.1  3.6 0.9
[...]
<PointData  Vectors="f_5"> 
<DataArray  type="Float64"  Name="f_5"  NumberOfComponents="3" format="ascii">0.0000000000000000e+00 0.0000000000000000e+00 0.0000000000000000e+00  -1.2322086916701181e-02 -5.0378365313805207e-03 -7.1701504680665188e-03  -2.2757879531894329e-02 -9.3732946845262680e-03 -1.0258972403368385e-02  -3.2671639146375477e-02 -1.5420770216096188e-02 -1.1822331702973664e-02  -4.2389054171773979e-02 -2.3578329294040513e-02 -1.2541474949873361e-02  -5.1971633386025944e-02 -3.3886820224567051e-02 -1.2739883000030729e-02  -6.1407168151021881e-02 -4.6296986173491414e-02 -1.2607450094467718e-02  -7.0666297556479782e-02 -6.0735646868472257e-02 -1.2262169325707379e-02  -7.9720253565641344e-02 -7.7126158178372373e-02 -1.1778146627333510e-02  -8.8545699700809485e-02 -9.5394647115840947e-02 -1.1201766740637937e-02  -9.7125175541675074e-02 -1.1547126833977045e-01 -1.0561838631835884e-02  -1.0544619298804651e-01 -1.3728979422731219e-01 -9.8761103481294511e-03  -1.1350008353400896e-01 -1.6078679067005547e-01 -9.1554537615525771e-03  -1.2128096523589785e-01 -1.8590082667489943e-01 -8.4065293091762014e-03  -1.2878492277247358e-01 -2.1257184599275714e-01 -7.6334614696796999e-03  -1.3600939511763011e-01 -2.4074070873168241e-01 -6.8388767851905617e-03  -1.4295273516171417e-01 -2.7034887293088683e-01 -6.0245365561213690e-03  -1.4961390146320014e-01 -3.0133818022050107e-01 -5.1917156394013682e-03  -1.5599224714957879e-01 -3.3365071473792801e-01 -4.3414247532575492e-03  -1.6208737807821391e-01 -3.6722871187824657e-01 -3.4745379965999438e-03  -1.6789905916892114e-01 -4.0201450016485407e-01 -2.5918640771449837e-03  -1.7342715349557281e-01 -4.3795046472726223e-01 -1.6941849033799432e-03  -1.7867158312863962e-01 -4.7497902458458385e-01 -7.8227589113477668e-04  -1.8363230397177427e-01 -5.1304261840449528e-01 1.4308335869931709e-04  -1.8830928913936720e-01 -5.5208369488088715e-01 1.0811027128613802e-03  -1.9270251701426566e-01 -5.9204470450507429e-01 2.0309760346170391e-03  -1.9681196127792677e-01 -6.3286808935736039e-01 2.9918739861567456e-03  -2.0063758128891915e-01 -6.7449626663975226e-01 3.9629327027674230e-03  -2.0417931278511273e-01 -7.1687160015680995e-01 4.9432357741223789e-03  -2.0743706197519934e-01 -7.5993635253201786e-01 5.9317868398295623e-03  -2.1041071220953372e-01 -8.0363261182597845e-01 6.9274707989807642e-03  -2.1310016366087955e-01 -8.4790219500557429e-01 7.9290047752107080e-03  -2.1550544458930171e-01 -8.9268655970644695e-01 8.9348886920369037e-03  -2.1762695635873203e-01 -9.3792682873023081e-01 9.9433848543518284e-03  -2.1946593167092662e-01 -9.8356418982331328e-01 1.0952593475984661e-02  -2.2102516167048392e-01 -1.0295412426998738e+00 1.1960752075950241e-02  -2.2230990597634734e-01 -1.0758054350942787e+00 1.2966959316240504e-02  -2.2332849925628026e-01 -1.1223167665095379e+00 1.3972517866356201e-02  -2.2409131284251402e-01 -1.1690639432481633e+00 1.4982547148664293e-02  -2.2460561512769653e-01 -1.2160978956282384e+00 1.6003714809940332e-02  -2.2486852985554406e-01 -1.2636074365775960e+00 1.7003866238366201e-02  0.0000000000000000e+00 0.0000000000000000e+00 0.0000000000000000e+00  -9.1368305046720336e-03 -2.3178291682151558e-03 -6.3559368390843987e-03  -1.7449339322042720e-02 -6.5141515188026069e-03 -8.6710192251124169e-03  -2.5363286562335448e-02 -1.2607171952527219e-02 -9.8261655355306992e-03  -3.3080859486719891e-02 -2.0819651834343384e-02 -1.0332056120626966e-02  -4.0672480587683989e-02 -3.1183477087339585e-02 -1.0431604698409671e-02  -4.8146529441033675e-02 -4.3651938515042801e-02 -1.0270304867648109e-02  -5.5487968771464578e-02 -5.8153102744715524e-02 -9.9391642562114291e-03  -6.2676017189224817e-02 -7.4610254347300994e-02 -9.4955375525238202e-03  -6.9691268000153392e-02 -9.2948877968979687e-02 -8.9754186152055226e-03  -7.6517968006510381e-02 -1.1309835527074712e-01 -8.4012122815484858e-03  -8.3144237213545441e-02 -1.3499175040115410e-01 -7.7867535655667067e-03  -8.9561525136845718e-02 -1.5856505156961906e-01 -7.1405475987855859e-03  -9.5763880221806319e-02 -1.8375638672723058e-01 -6.4678399800685718e-03  -1.0174726732981149e-01 -2.1050537748825429e-01 -5.7719207234711682e-03  -1.0750901061885891e-01 -2.3875265638900783e-01 -5.0549318686416433e-03  -1.1304737048878305e-01 -2.6843952501318086e-01 -4.3183585627823767e-03  -1.1836123690702105e-01 -2.9950771993644959e-01 -3.5633217047868018e-03  -1.2344991443711835e-01 -3.3189925625772815e-01 -2.7907484335787281e-03  -1.2831297547746273e-01 -3.6555632492431595e-01 -2.0014688791489895e-03  -1.3295016226361170e-01 -4.0042122643174782e-01 -1.1962693697276548e-03  -1.3736132269124079e-01 -4.3643632864818283e-01 -3.7592060166565032e-04  -1.4154636900389331e-01 -4.7354404032859476e-01 4.5880805812515140e-04  -1.4550525156088168e-01 -5.1168679451368193e-01 1.3071414611046832e-03  -1.4923794225036485e-01 -5.5080703766366357e-01 2.1682947465582959e-03  -1.5274442373807065e-01 -5.9084722121269517e-01 3.0414700896481380e-03  -1.5602468174698003e-01 -6.3174979232289263e-01 3.9258524301782997e-03  -1.5907869800530522e-01 -6.7345718000449195e-01 4.8206029177403700e-03  -1.6190644135840954e-01 -7.1591177157414820e-01 5.7248491938284530e-03  -1.6450785370110363e-01 -7.5905587317970469e-01 6.6376724046667349e-03  -1.6688282568902249e-01 -8.0283164849274657e-01 7.5580927257304495e-03  -1.6903115465782001e-01 -8.4718103592249927e-01 8.4850594154798151e-03  -1.7095247472751007e-01 -8.9204566630107174e-01 9.4174599258766492e-03  -1.7264615006277817e-01 -9.3736685833956013e-01 1.0354177826397399e-02  -1.7411113550642507e-01 -9.8308588874883074e-01 1.1294252941466238e-02  -1.7534585552646395e-01 -1.0291449579094096e+00 1.2237225759751020e-02  -1.7634829104490737e-01 -1.0754896355988006e+00 1.3183759466406304e-02  -1.7711687827346642e-01 -1.1220740710997861e+00 1.4136538474229875e-02  -1.7765412786447310e-01 -1.1688707881906397e+00 1.5100894517686854e-02  -1.7797952025990924e-01 -1.2158873887514814e+00 1.6081727139870650e-02  -1.7818453816978694e-01 -1.2631968243616929e+00 1.7047101937469139e-02  0.0000000000000000e+00 0.0000000000000000e+00 0.0000000000000000e+00  -6.6290094854279278e-03 -7.2168872176469679e-04 -4.8684079266170643e-03  -1.2573938538487059e-02 -4.3248100590584848e-03 -6.6992644815596488e-03  -1.8420873099600565e-02 -1.0338363636069096e-02 -7.5170572323213980e-03  -2.4176977229378536e-02 -1.8586489924191457e-02 -7.8304918387393681e-03  -2.9844426646365503e-02 -2.9007430958658532e-02 -7.8423894271748562e-03  -3.5419171699860814e-02 -4.1534985078288171e-02 -7.6616610988356161e-03  -4.0890812777576786e-02 -5.6094444080068674e-02 -7.3538269483893809e-03  -4.6246338443710788e-02 -7.2609593658108249e-02 -6.9596519436527383e-03  -5.1473063614596755e-02 -9.1006610976558835e-02 -6.5046554916652821e-03  -5.6560119669689359e-02 -1.1121522905942216e-01 -6.0047671212737049e-03  -6.1498907622448036e-02 -1.3316857602357535e-01 -5.4698906450352525e-03  -6.6282986879140679e-02 -1.5680254972004870e-01 -4.9061857521691130e-03  -7.0907725694625764e-02 -1.8205513191390779e-01 -4.3175239087236321e-03  -7.5369898104511140e-02 -2.0886579674261532e-01 -3.7064062092854806e-03  -7.9667315939623118e-02 -2.3717505165408564e-01 -3.0745324484031636e-03  -8.3798528468283645e-02 -2.6692410175139925e-01 -2.4231471076675334e-03  -8.7762593364718602e-02 -2.9805461366884822e-01 -1.7532451075924196e-03  -9.1558910079253555e-02 -3.3050855402491586e-01 -1.0656911146749483e-03  -9.5187102810263644e-02 -3.6422808130353879e-01 -3.6128669618121185e-04  -9.8646940603864211e-02 -3.9915547485333158e-01 3.5919323411932934e-04  -1.0193828409705509e-01 -4.3523308907426728e-01 1.0949815265222534e-03  -1.0506105077253319e-01 -4.7240332434042903e-01 1.8453095359903416e-03  -1.0801519270847772e-01 -5.1060860876619896e-01 2.6094027781662782e-03  -1.1080068244065824e-01 -5.4979138667887562e-01 3.3864787056746355e-03  -1.1341750360661178e-01 -5.8989411074570741e-01 4.1757449341781857e-03  -1.1586564341875201e-01 -6.3085923522398701e-01 4.9763969378684185e-03  -1.1814508353504397e-01 -6.7262920784357005e-01 5.7876147979807292e-03  -1.2025578423592015e-01 -7.1514645750334305e-01 6.6085593708237874e-03  -1.2219765351427619e-01 -7.5835337452110252e-01 7.4383697308090411e-03  -1.2397048737554105e-01 -8.0219228025458467e-01 8.2761666812098001e-03  -1.2557386085997141e-01 -8.4660538498261440e-01 9.1210725722177585e-03  -1.2700694462215087e-01 -8.9153474016052514e-01 9.9722668177519118e-03  -1.2826823075115798e-01 -9.3692220981062535e-01 1.0829109756765140e-02  -1.2935520166527009e-01 -9.8270952636662068e-01 1.1691381864394135e-02  -1.3026412157994827e-01 -1.0288385671104463e+00 1.2559689098717790e-02  -1.3099045853538607e-01 -1.0752520583807064e+00 1.3436048039986319e-02  -1.3153109527733337e-01 -1.1218948148275547e+00 1.4324508912550805e-02  -1.3189074121063116e-01 -1.1687147759475525e+00 1.5231151314693292e-02  -1.3209774785088665e-01 -1.2156596480767559e+00 1.6160568998512117e-02  -1.3224735309150520e-01 -1.2626508689729243e+00 1.7086775169278669e-02  0.0000000000000000e+00 0.0000000000000000e+00 0.0000000000000000e+00  -4.3191659699732118e-03 2.0023470630740583e-04 -3.2441850292676540e-03  -8.1157981559670245e-03 -2.9000960991507124e-03 -4.4887920579644016e-03  -1.1895989879772341e-02 -8.7301517062590810e-03 -5.0199599897559751e-03  -1.5673383864790752e-02 -1.6960655612922263e-02 -5.1799321338235563e-03  -1.9414306723149699e-02 -2.7418304238666855e-02 -5.1273323102428272e-03  -2.3097768450129643e-02 -3.9995187905639953e-02 -4.9416947183262873e-03  -2.6711073616908273e-02 -5.4604334797583989e-02 -4.6671467967581322e-03  -3.0244954780464343e-02 -7.1167110195462069e-02 -4.3298481009133548e-03  -3.3691846773507214e-02 -8.9609988493950715e-02 -3.9458340613257393e-03  -3.7045499221592830e-02 -1.0986343169306181e-01 -3.5250936649347891e-03  -4.0300904981706527e-02 -1.3186113036085817e-01 -3.0739173527345076e-03  -4.3454211387359561e-02 -1.5553931075226016e-01 -2.5963260059253886e-03  -4.6502565359794835e-02 -1.8083611274739914e-01 -2.0949603292109327e-03  -4.9443923576595383e-02 -2.0769106950222829e-01 -1.5716356239451799e-03  -5.2276863999753828e-02 -2.3604469828567182e-01 -1.0276846014272642e-03  -5.5000421035363081e-02 -2.6583819379454104e-01 -4.6416579497208902e-04  -5.7613952896652991e-02 -2.9701320669733933e-01 1.1801237073673560e-04  -6.0117040978159994e-02 -3.2951168845793893e-01 7.1801956365249043e-04  -6.2509416791446448e-02 -3.6327578531672533e-01 1.3350629974155292e-03  -6.4790910704168897e-02 -3.9824776745143137e-01 1.9683654518757678e-03  -6.6961416983593161e-02 -4.3436998261013948e-01 2.6171539240847298e-03  -6.9020870546980181e-02 -4.7158482637246557e-01 3.2806541110806044e-03  -7.0969231827951090e-02 -5.0983472348756165e-01 3.9580878594397146e-03  -7.2806476990274607e-02 -5.4906211647812486e-01 4.6486718792090815e-03  -7.4532591184590019e-02 -5.8920945898606358e-01 5.3516167201127238e-03  -7.6147562489074144e-02 -6.3021921229292999e-01 6.0661254861270860e-03  -7.7651373380780583e-02 -6.7203384419940393e-01 6.7913922508426126e-03  -7.9043984728304387e-02 -7.1459583007490013e-01 7.5266009169143340e-03  -8.0325303991552119e-02 -7.5784765632683471e-01 8.2709267595076647e-03  -8.1495124342066558e-02 -8.0173182629693840e-01 9.0235457408752388e-03  -8.2553015453926001e-02 -8.4619086608690597e-01 9.7836617500844485e-03  -8.3498143218597928e-02 -8.9116731907858193e-01 1.0550570081692717e-02  -8.4329005289137587e-02 -9.3660369469942950e-01 1.1323786598852406e-02  -8.5043119411319965e-02 -9.8244228559844671e-01 1.2103282027746151e-02  -8.5636850143510745e-02 -1.0286246697223118e+00 1.2889854653314398e-02  -8.6105893828352667e-02 -1.0750905292487705e+00 1.3685616037466661e-02  -8.6447509684662777e-02 -1.1217749598285927e+00 1.4494384940059162e-02  -8.6666306398089171e-02 -1.1686020179966767e+00 1.5321322012761695e-02  -8.6786169807344174e-02 -1.2154675157660741e+00 1.6169562819455630e-02  -8.6874919823548793e-02 -1.2621857931550040e+00 1.7019544041457637e-02  0.0000000000000000e+00 0.0000000000000000e+00 0.0000000000000000e+00  -2.0882439826615763e-03 6.8265676480177575e-04 -1.5729559491046005e-03  -3.8725838986093694e-03 -2.1099846662553825e-03 -2.1703729847825444e-03  -5.6593799456554897e-03 -7.7892572273488142e-03 -2.4033827766326366e-03  -7.4683173727025601e-03 -1.5977104459004979e-02 -2.4300191389950215e-03  -9.2761545599213402e-03 -2.6445984776010744e-02 -2.3331062165502575e-03  -1.1062165436855767e-02 -3.9052944629290536e-02 -2.1572049549046803e-03  -1.2814445013136671e-02 -5.3695936896094247e-02 -1.9259278548911763e-03  -1.4526572893066372e-02 -7.0291457842956304e-02 -1.6523437361002813e-03  -1.6194760116204267e-02 -8.8765102789513328e-02 -1.3441328775223699e-03  -1.7816449078475936e-02 -1.0904767381574171e-01 -1.0060731463959198e-03  -1.9389748733003111e-02 -1.3107339759387399e-01 -6.4129755354357619e-04  -2.0913217848634761e-02 -1.5477893346888189e-01 -2.5197425503838816e-04  -2.2385765209712197e-02 -1.8010270997650890e-01 1.6030397696861114e-04  -2.3806581832355046e-02 -2.0698443528199872e-01 5.9428822137431493e-04  -2.5175082164816183e-02 -2.3536472687421359e-01 1.0489333771727032e-03  -2.6490851668149341e-02 -2.6518483461208836e-01 1.5233132851601087e-03  -2.7753602352997245e-02 -2.9638643852388219e-01 2.0165696699860178e-03  -2.8963137175859580e-02 -3.2891150509085132e-01 2.5278818524660444e-03  -3.0119322888767116e-02 -3.6270218771365637e-01 3.0564491165951009e-03  -3.1222070130286158e-02 -3.9770075941653266e-01 3.6014806816081209e-03  -3.2271319297608674e-02 -4.3384956835432931e-01 4.1621901560908526e-03  -3.3267030834849151e-02 -4.7109100903732420e-01 4.7377925502406909e-03  -3.4209178802515866e-02 -5.0936750420758159e-01 5.3275026511745878e-03  -3.5097746808526030e-02 -5.4862149396407189e-01 5.9305339959662313e-03  -3.5932725474715543e-02 -5.8879543011917346e-01 6.5460979302308471e-03  -3.6714110483491436e-02 -6.2983177501364207e-01 7.1734024189833625e-03  -3.7441899770125957e-02 -6.7167300527321350e-01 7.8116504942286153e-03  -3.8116087423016982e-02 -7.1426162233891977e-01 8.4600386429267132e-03  -3.8736650106057292e-02 -7.5754017282578212e-01 9.1177563237905823e-03  -3.9303519103561703e-02 -8.0145128175717684e-01 9.7839895823658377e-03  -3.9816527346683443e-02 -8.4593769712323297e-01 1.0457935064981459e-02  -4.0275316565046612e-02 -8.9094232646330607e-01 1.1138836461010770e-02  -4.0679187627706052e-02 -9.3640819600810676e-01 1.1826064189360328e-02  -4.1026886823410526e-02 -9.8227814260086366e-01 1.2519269802750534e-02  -4.1316375408980692e-02 -1.0284938003256654e+00 1.3218649989177492e-02  -4.1544823530810938e-02 -1.0749930192098518e+00 1.3925316716714015e-02  -4.1709523446001151e-02 -1.1217042042063659e+00 1.4641613061291428e-02  -4.1810936842586299e-02 -1.1685347006262199e+00 1.5370844360684355e-02  -4.1858962147901128e-02 -1.2153460867224259e+00 1.6115010085989749e-02  -4.1882630158510903e-02 -1.2618927841732219e+00 1.6864192102850367e-02  0.0000000000000000e+00 0.0000000000000000e+00 0.0000000000000000e+00  1.1651659824026797e-04 8.3115800785010124e-04 1.1356187297981121e-04  2.8579664545490518e-04 -1.8616546544016747e-03 1.8792097932186105e-04  4.4301155333898291e-04 -7.4789204904222939e-03 2.6705931447026525e-04  5.8088196037489679e-04 -1.5639037163194959e-02 3.7172407965204048e-04  7.0430605346229679e-04 -2.6104688004140678e-02 5.0337250781696673e-04  8.2058644583187532e-04 -3.8720993021124660e-02 6.6016595194059644e-04  9.3443148447354125e-04 -5.3377626091035024e-02 8.4114523372181638e-04  1.0476039189145799e-03 -6.9987136167599218e-02 1.0462055357392415e-03  1.1601432291697938e-03 -8.8473762252527607e-02 1.2754099054559209e-03  1.2714020525343810e-03 -1.0876810353615274e-01 1.5286422462830738e-03  1.3806088377250703e-03 -1.3080457967466419e-01 1.8055385031225299e-03  1.4870996164573047e-03 -1.5452011847166691e-01 2.1055314321105842e-03  1.5903789688351932e-03 -1.7985338281456262e-01 2.4279185938605487e-03  1.6901089519961675e-03 -2.0674425731129700e-01 2.7719198963277259e-03  1.7860752824857458e-03 -2.3513348332135683e-01 3.1367174231176969e-03  1.8781519669161758e-03 -2.6496239415773404e-01 3.5214797565910664e-03  1.9662718883329015e-03 -2.9617272436474412e-01 3.9253751979230417e-03  2.0504048715660589e-03 -3.2870647497224514e-01 4.3475778979030211e-03  2.1305424430687640e-03 -3.6250582045296037e-01 4.7872698773475993e-03  2.2066878142095823e-03 -3.9751304591690984e-01 5.2436409205526167e-03  2.2788495859155781e-03 -4.3367050559026660e-01 5.7158875529560900e-03  2.3470378642741394e-03 -4.7092059587736912e-01 6.2032117681133170e-03  2.4112617032710382e-03 -5.0920573823248538e-01 6.7048197985803267e-03  2.4715269726598775e-03 -5.4846836867880655e-01 7.2199209725571532e-03  2.5278338523695618e-03 -5.8865093219717723e-01 7.7477265135037906e-03  2.5801731633982037e-03 -6.2969588152205258e-01 8.2874479872259744e-03  2.6285206474128439e-03 -6.7154568131314507e-01 8.8382949618717888e-03  2.6728281015474158e-03 -7.1414282035756405e-01 9.3994713305197378e-03  2.7130100116074867e-03 -7.5742983627866856e-01 9.9701697131103894e-03  2.7489242519155000e-03 -8.0134935824119324e-01 1.0549563559241540e-02  2.7803463715862196e-03 -8.4584417018689428e-01 1.1136797356219266e-02  2.8069413704044041e-03 -8.9085728156903954e-01 1.1730977419319513e-02  2.8282507372898225e-03 -9.3633194298241840e-01 1.2331170582571473e-02  2.8437488316588517e-03 -9.8221141132971590e-01 1.2936428682323279e-02  2.8531002363577970e-03 -1.0284379513935633e+00 1.3545877484863076e-02  2.8568520126274330e-03 -1.0749498993759068e+00 1.4158935702514112e-02  2.8576692736449914e-03 -1.1216745935405965e+00 1.4775692673874621e-02  2.8614472772791463e-03 -1.1685138498404581e+00 1.5397205942810676e-02  2.8772783172253515e-03 -1.2153159131870443e+00 1.6025079879584535e-02  2.9190993479945469e-03 -1.2618150629807883e+00 1.6661095409486747e-02  0.0000000000000000e+00 0.0000000000000000e+00 0.0000000000000000e+00  2.3337056952846317e-03 6.7322418949619948e-04 1.7957285234163414e-03  4.4557295414581225e-03 -2.1219660262691846e-03 2.5431799033277802e-03  6.5464821581902432e-03 -7.7762597234992846e-03 2.9400370203197055e-03  8.6216928517331391e-03 -1.5939001054944113e-02 3.1792768054616340e-03  1.0673114148057978e-02 -2.6396499383900433e-02 3.3452053723325012e-03  1.2693172178307071e-02 -3.9003904999243631e-02 3.4807132779597683e-03  1.4676378697454322e-02 -5.3653061646183588e-02 3.6092685882945395e-03  1.6618038787268509e-02 -7.0256041661378929e-02 3.7443211099916500e-03  1.8513791767075176e-02 -8.8736299477187280e-02 3.8936607623139005e-03  2.0359723290320424e-02 -1.0902394314540012e-01 4.0616517537223722e-03  2.2152545861951849e-02 -1.3105319929889342e-01 4.2505269646181693e-03  2.3889669124643884e-02 -1.5476098652367085e-01 4.4611987030758523e-03  2.5569160320238860e-02 -1.8008604484990126e-01 4.6937797655223950e-03  2.7189642730990452e-02 -2.0696836230688750e-01 4.9479161131516201e-03  2.8750174869216504e-02 -2.3534877911113186e-01 5.2229943398454451e-03  3.0250136567339707e-02 -2.6516871020202515e-01 5.5182667644918335e-03  3.1689133923938885e-02 -2.9636995174071745e-01 5.8329236750305890e-03  3.3066926023878847e-02 -3.2889454823776365e-01 6.1661327828430850e-03  3.4383371628741270e-02 -3.6268470303993849e-01 6.5170591450499707e-03  3.5638392130916609e-02 -3.9768271914596914e-01 6.8848740294048475e-03  3.6831946730552824e-02 -4.3383096067395643e-01 7.2687579348212255e-03  3.7964016184124018e-02 -4.7107182800082120e-01 7.6679008264558708e-03  3.9034592077720483e-02 -5.0934774171898578e-01 8.0815012597825163e-03  4.0043669111202190e-02 -5.4860113220811746e-01 8.5087651866389193e-03  4.0991238177901859e-02 -5.8877443294724974e-01 8.9489046509984745e-03  4.1877277973004279e-02 -6.2981007688473734e-01 9.4011361291149575e-03  4.2701742343624588e-02 -6.7165049646242747e-01 9.8646778068786963e-03  4.3464539464435840e-02 -7.1423812948576282e-01 1.0338744480347205e-02  4.4165497066126172e-02 -7.5751543508557528e-01 1.0822537868738219e-02  4.4804305465300773e