<?xml version="1.0"?>
<VTKFile type="UnstructuredGrid"  version="0.1"  >
<UnstructuredGrid>
<Piece  NumberOfPoints="4961" NumberOfCells="24000">
<Points>
<DataArray  type="Float64"  NumberOfComponents="3"  format="ascii">0 0 0  0.1 0 0  0.2 0 0  0.3 0 0  0.4 0 0  0.5 0 0  0.6 0 0  0.7 0 0  0.8 0 0  0.9 0 0  1 0 0  1.1 0 0  1.2 0 0  1.3 0 0  1.4 0 0  1.5 0 0  1.6 0 0  1.7 0 0  1.8 0 0  1.9 0 0  2 0 0  2.1 0 0  2.2 0 0  2.3 0 0  2.4 0 0  2.5 0 0  2.6 0 0  2.7 0 0  2.8 0 0  2.9 0 0  3 0 0  3.1 0 0  3.2 0 0  3.3 0 0  3.4 0 0  3.5 0 0  3.6 0 0  3.7 0 0  3.8 0 0  3.9 0 0  4 0 0  0 0.1 0  0.1 0.1 0  0.2 0.1 0  0.3 0.1 0  0.4 0.1 0  0.5 0.1 0  0.6 0.1 0  0.7 0.1 0  0.8 0.1 0  0.9 0.1 0  1 0.1 0  1.1 0.1 0  1.2 0.1 0  1.3 0.1 0  1.4 0.1 0  1.5 0.1 0  1.6 0.1 0  1.7 0.1 0  1.8 0.1 0  1.9 0.1 0  2 0.1 0  2.1 0.1 0  2.2 0.1 0  2.3 0.1 0  2.4 0.1 0  2.5 0.1 0  2.6 0.1 0  2.7 0.1 0  2.8 0.1 0  2.9 0.1 0  3 0.1 0  3.1 0.1 0  3.2 0.1 0  3.3 0.1 0  3.4 0.1 0  3.5 0.1 0  3.6 0.1 0  3.7 0.1 0  3.8 0.1 0  3.9 0.1 0  4 0.1 0  0 0.2 0  0.1 0.2 0  0.2 0.2 0  0.3 0.2 0  0.4 0.2 0  0.5 0.2 0  0.6 0.2 0  0.7 0.2 0  0.8 0.2 0  0.9 0.2 0  1 0.2 0  1.1 0.2 0  1.2 0.2 0  1.3 0.2 0  1.4 0.2 0  1.5 0.2 0  1.6 0.2 0  1.7 0.2 0  1.8 0.2 0  1.9 0.2 0  2 0.2 0  2.1 0.2 0  2.2 0.2 0  2.3 0.2 0  2.4 0.2 0  2.5 0.2 0  2.6 0.2 0  2.7 0.2 0  2.8 0.2 0  2.9 0.2 0  3 0.2 0  3.1 0.2 0  3.2 0.2 0  3.3 0.2 0  3.4 0.2 0  3.5 0.2 0  3.6 0.2 0  3.7 0.2 0  3.8 0.2 0  3.9 0.2 0  4 0.2 0  0 0.3 0  0.1 0.3 0  0.2 0.3 0  0.3 0.3 0  0.4 0.3 0  0.5 0.3 0  0.6 0.3 0  0.7 0.3 0  0.8 0.3 0  0.9 0.3 0  1 0.3 0  1.1 0.3 0  1.2 0.3 0  1.3 0.3 0  1.4 0.3 0  1.5 0.3 0  1.6 0.3 0  1.7 0.3 0  1.8 0.3 0  1.9 0.3 0  2 0.3 0  2.1 0.3 0  2.2 0.3 0  2.3 0.3 0  2.4 0.3 0  2.5 0.3 0  2.6 0.3 0  2.7 0.3 0  2.8 0.3 0  2.9 0.3 0  3 0.3 0  3.1 0.3 0  3.2 0.3 0  3.3 0.3 0  3.4 0.3 0  3.5 0.3 0  3.6 0.3 0  3.7 0.3 0  3.8 0.3 0  3.9 0.3 0  4 0.3 0  0 0.4 0  0.1 0.4 0  0.2 0.4 0  0.3 0.4 0  0.4 0.4 0  0.5 0.4 0  0.6 0.4 0  0.7 0.4 0  0.8 0.4 0  0.9 0.4 0  1 0.4 0  1.1 0.4 0  1.2 0.4 0  1.3 0.4 0  1.4 0.4 0  1.5 0.4 0  1.6 0.4 0  1.7 0.4 0  1.8 0.4 0  1.9 0.4 0  2 0.4 0  2.1 0.4 0  2.2 0.4 0  2.3 0.4 0  2.4 0.4 0  2.5 0.4 0  2.6 0.4 0  2.7 0.4 0  2.8 0.4 0  2.9 0.4 0  3 0.4 0  3.1 0.4 0  3.2 0.4 0  3.3 0.4 0  3.4 0.4 0  3.5 0.4 0  3.6 0.4 0  3.7 0.4 0  3.8 0.4 0  3.9 0.4 0  4 0.4 0  0 0.5 0  0.1 0.5 0  0.2 0.5 0  0.3 0.5 0  0.4 0.5 0  0.5 0.5 0  0.6 0.5 0  0.7 0.5 0  0.8 0.5 0  0.9 0.5 0  1 0.5 0  1.1 0.5 0  1.2 0.5 0  1.3 0.5 0  1.4 0.5 0  1.5 0.5 0  1.6 0.5 0  1.7 0.5 0  1.8 0.5 0  1.9 0.5 0  2 0.5 0  2.1 0.5 0  2.2 0.5 0  2.3 0.5 0  2.4 0.5 0  2.5 0.5 0  2.6 0.5 0  2.7 0.5 0  2.8 0.5 0  2.9 0.5 0  3 0.5 0  3.1 0.5 0  3.2 0.5 0  3.3 0.5 0  3.4 0.5 0  3.5 0.5 0  3.6 0.5 0  3.7 0.5 0  3.8 0.5 0  3.9 0.5 0  4 0.5 0  0 0.6 0  0.1 0.6 0  0.2 0.6 0  0.3 0.6 0  0.4 0.6 0  0.5 0.6 0  0.6 0.6 0  0.7 0.6 0  0.8 0.6 0  0.9 0.6 0  1 0.6 0  1.1 0.6 0  1.2 0.6 0  1.3 0.6 0  1.4 0.6 0  1.5 0.6 0  1.6 0.6 0  1.7 0.6 0  1.8 0.6 0  1.9 0.6 0  2 0.6 0  2.1 0.6 0  2.2 0.6 0  2.3 0.6 0  2.4 0.6 0  2.5 0.6 0  2.6 0.6 0  2.7 0.6 0  2.8 0.6 0  2.9 0.6 0  3 0.6 0  3.1 0.6 0  3.2 0.6 0  3.3 0.6 0  3.4 0.6 0  3.5 0.6 0  3.6 0.6 0  3.7 0.6 0  3.8 0.6 0  3.9 0.6 0  4 0.6 0  0 0.7 0  0.1 0.7 0  0.2 0.7 0  0.3 0.7 0  0.4 0.7 0  0.5 0.7 0  0.6 0.7 0  0.7 0.7 0  0.8 0.7 0  0.9 0.7 0  1 0.7 0  1.1 0.7 0  1.2 0.7 0  1.3 0.7 0  1.4 0.7 0  1.5 0.7 0  1.6 0.7 0  1.7 0.7 0  1.8 0.7 0  1.9 0.7 0  2 0.7 0  2.1 0.7 0  2.2 0.7 0  2.3 0.7 0  2.4 0.7 0  2.5 0.7 0  2.6 0.7 0  2.7 0.7 0  2.8 0.7 0  2.9 0.7 0  3 0.7 0  3.1 0.7 0  3.2 0.7 0  3.3 0.7 0  3.4 0.7 0  3.5 0.7 0  3.6 0.7 0  3.7 0.7 0  3.8 0.7 0  3.9 0.7 0  4 0.7 0  0 0.8 0  0.1 0.8 0  0.2 0.8 0  0.3 0.8 0  0.4 0.8 0  0.5 0.8 0  0.6 0.8 0  0.7 0.8 0  0.8 0.8 0  0.9 0.8 0  1 0.8 0  1.1 0.8 0  1.2 0.8 0  1.3 0.8 0  1.4 0.8 0  1.5 0.8 0  1.6 0.8 0  1.7 0.8 0  1.8 0.8 0  1.9 0.8 0  2 0.8 0  2.1 0.8 0  2.2 0.8 0  2.3 0.8 0  2.4 0.8 0  2.5 0.8 0  2.6 0.8 0  2.7 0.8 0  2.8 0.8 0  2.9 0.8 0  3 0.8 0  3.1 0.8 0  3.2 0.8 0  3.3 0.8 0  3.4 0.8 0  3.5 0.8 0  3.6 0.8 0  3.7 0.8 0  3.8 0.8 0  3.9 0.8 0  4 0.8 0  0 0.9 0  0.1 0.9 0  0.2 0.9 0  0.3 0.9 0  0.4 0.9 0  0.5 0.9 0  0.6 0.9 0  0.7 0.9 0  0.8 0.9 0  0.9 0.9 0  1 0.9 0  1.1 0.9 0  1.2 0.9 0  1.3 0.9 0  1.4 0.9 0  1.5 0.9 0  1.6 0.9 0  1.7 0.9 0  1.8 0.9 0  1.9 0.9 0  2 0.9 0  2.1 0.9 0  2.2 0.9 0  2.3 0.9 0  2.4 0.9 0  2.5 0.9 0  2.6 0.9 0  2.7 0.9 0  2.8 0.9 0  2.9 0.9 0  3 0.9 0  3.1 0.9 0  3.2 0.9 0  3.3 0.9 0  3.4 0.9 0  3.5 0.9 0  3.6 0.9 0  3.7 0.9 0  3.8 0.9 0  3.9 0.9 0  4 0.9 0  0 1 0  0.1 1 0  0.2 1 0  0.3 1 0  0.4 1 0  0.5 1 0  0.6 1 0  0.7 1 0  0.8 1 0  0.9 1 0  1 1 0  1.1 1 0  1.2 1 0  1.3 1 0  1.4 1 0  1.5 1 0  1.6 1 0  1.7 1 0  1.8 1 0  1.9 1 0  2 1 0  2.1 1 0  2.2 1 0  2.3 1 0  2.4 1 0  2.5 1 0  2.6 1 0  2.7 1 0  2.8 1 0  2.9 1 0  3 1 0  3.1 1 0  3.2 1 0  3.3 1 0  3.4 1 0  3.5 1 0  3.6 1 0  3.7 1 0  3.8 1 0  3.9 1 0  4 1 0  0 0 0.1  0.1 0 0.1  0.2 0 0.1  0.3 0 0.1  0.4 0 0.1  0.5 0 0.1  0.6 0 0.1  0.7 0 0.1  0.8 0 0.1  0.9 0 0.1  1 0 0.1  1.1 0 0.1  1.2 0 0.1  1.3 0 0.1  1.4 0 0.1  1.5 0 0.1  1.6 0 0.1  1.7 0 0.1  1.8 0 0.1  1.9 0 0.1  2 0 0.1  2.1 0 0.1  2.2 0 0.1  2.3 0 0.1  2.4 0 0.1  2.5 0 0.1  2.6 0 0.1  2.7 0 0.1  2.8 0 0.1  2.9 0 0.1  3 0 0.1  3.1 0 0.1  3.2 0 0.1  3.3 0 0.1  3.4 0 0.1  3.5 0 0.1  3.6 0 0.1  3.7 0 0.1  3.8 0 0.1  3.9 0 0.1  4 0 0.1  0 0.1 0.1  0.1 0.1 0.1  0.2 0.1 0.1  0.3 0.1 0.1  0.4 0.1 0.1  0.5 0.1 0.1  0.6 0.1 0.1  0.7 0.1 0.1  0.8 0.1 0.1  0.9 0.1 0.1  1 0.1 0.1  1.1 0.1 0.1  1.2 0.1 0.1  1.3 0.1 0.1  1.4 0.1 0.1  1.5 0.1 0.1  1.6 0.1 0.1  1.7 0.1 0.1  1.8 0.1 0.1  1.9 0.1 0.1  2 0.1 0.1  2.1 0.1 0.1  2.2 0.1 0.1  2.3 0.1 0.1  2.4 0.1 0.1  2.5 0.1 0.1  2.6 0.1 0.1  2.7 0.1 0.1  2.8 0.1 0.1  2.9 0.1 0.1  3 0.1 0.1  3.1 0.1 0.1  3.2 0.1 0.1  3.3 0.1 0.1  3.4 0.1 0.1  3.5 0.1 0.1  3.6 0.1 0.1  3.7 0.1 0.1  3.8 0.1 0.1  3.9 0.1 0.1  4 0.1 0.1  0 0.2 0.1  0.1 0.2 0.1  0.2 0.2 0.1  0.3 0.2 0.1  0.4 0.2 0.1  0.5 0.2 0.1  0.6 0.2 0.1  0.7 0.2 0.1  0.8 0.2 0.1  0.9 0.2 0.1  1 0.2 0.1  1.1 0.2 0.1  1.2 0.2 0.1  1.3 0.2 0.1  1.4 0.2 0.1  1.5 0.2 0.1  1.6 0.2 0.1  1.7 0.2 0.1  1.8 0.2 0.1  1.9 0.2 0.1  2 0.2 0.1  2.1 0.2 0.1  2.2 0.2 0.1  2.3 0.2 0.1  2.4 0.2 0.1  2.5 0.2 0.1  2.6 0.2 0.1  2.7 0.2 0.1  2.8 0.2 0.1  2.9 0.2 0.1  3 0.2 0.1  3.1 0.2 0.1  3.2 0.2 0.1  3.3 0.2 0.1  3.4 0.2 0.1  3.5 0.2 0.1  3.6 0.2 0.1  3.7 0.2 0.1  3.8 0.2 0.1  3.9 0.2 0.1  4 0.2 0.1  0 0.3 0.1  0.1 0.3 0.1  0.2 0.3 0.1  0.3 0.3 0.1  0.4 0.3 0.1  0.5 0.3 0.1  0.6 0.3 0.1  0.7 0.3 0.1  0.8 0.3 0.1  0.9 0.3 0.1  1 0.3 0.1  1.1 0.3 0.1  1.2 0.3 0.1  1.3 0.3 0.1  1.4 0.3 0.1  1.5 0.3 0.1  1.6 0.3 0.1  1.7 0.3 0.1  1.8 0.3 0.1  1.9 0.3 0.1  2 0.3 0.1  2.1 0.3 0.1  2.2 0.3 0.1  2.3 0.3 0.1  2.4 0.3 0.1  2.5 0.3 0.1  2.6 0.3 0.1  2.7 0.3 0.1  2.8 0.3 0.1  2.9 0.3 0.1  3 0.3 0.1  3.1 0.3 0.1  3.2 0.3 0.1  3.3 0.3 0.1  3.4 0.3 0.1  3.5 0.3 0.1  3.6 0.3 0.1  3.7 0.3 0.1  3.8 0.3 0.1  3.9 0.3 0.1  4 0.3 0.1  0 0.4 0.1  0.1 0.4 0.1  0.2 0.4 0.1  0.3 0.4 0.1  0.4 0.4 0.1  0.5 0.4 0.1  0.6 0.4 0.1  0.7 0.4 0.1  0.8 0.4 0.1  0.9 0.4 0.1  1 0.4 0.1  1.1 0.4 0.1  1.2 0.4 0.1  1.3 0.4 0.1  1.4 0.4 0.1  1.5 0.4 0.1  1.6 0.4 0.1  1.7 0.4 0.1  1.8 0.4 0.1  1.9 0.4 0.1  2 0.4 0.1  2.1 0.4 0.1  2.2 0.4 0.1  2.3 0.4 0.1  2.4 0.4 0.1  2.5 0.4 0.1  2.6 0.4 0.1  2.7 0.4 0.1  2.8 0.4 0.1  2.9 0.4 0.1  3 0.4 0.1  3.1 0.4 0.1  3.2 0.4 0.1  3.3 0.4 0.1  3.4 0.4 0.1  3.5 0.4 0.1  3.6 0.4 0.1  3.7 0.4 0.1  3.8 0.4 0.1  3.9 0.4 0.1  4 0.4 0.1  0 0.5 0.1  0.1 0.5 0.1  0.2 0.5 0.1  0.3 0.5 0.1  0.4 0.5 0.1  0.5 0.5 0.1  0.6 0.5 0.1  0.7 0.5 0.1  0.8 0.5 0.1  0.9 0.5 0.1  1 0.5 0.1  1.1 0.5 0.1  1.2 0.5 0.1  1.3 0.5 0.1  1.4 0.5 0.1  1.5 0.5 0.1  1.6 0.5 0.1  1.7 0.5 0.1  1.8 0.5 0.1  1.9 0.5 0.1  2 0.5 0.1  2.1 0.5 0.1  2.2 0.5 0.1  2.3 0.5 0.1  2.4 0.5 0.1  2.5 0.5 0.1  2.6 0.5 0.1  2.7 0.5 0.1  2.8 0.5 0.1  2.9 0.5 0.1  3 0.5 0.1  3.1 0.5 0.1  3.2 0.5 0.1  3.3 0.5 0.1  3.4 0.5 0.1  3.5 0.5 0.1  3.6 0.5 0.1  3.7 0.5 0.1  3.8 0.5 0.1  3.9 0.5 0.1  4 0.5 0.1  0 0.6 0.1  0.1 0.6 0.1  0.2 0.6 0.1  0.3 0.6 0.1  0.4 0.6 0.1  0.5 0.6 0.1  0.6 0.6 0.1  0.7 0.6 0.1  0.8 0.6 0.1  0.9 0.6 0.1  1 0.6 0.1  1.1 0.6 0.1  1.2 0.6 0.1  1.3 0.6 0.1  1.4 0.6 0.1  1.5 0.6 0.1  1.6 0.6 0.1  1.7 0.6 0.1  1.8 0.6 0.1  1.9 0.6 0.1  2 0.6 0.1  2.1 0.6 0.1  2.2 0.6 0.1  2.3 0.6 0.1  2.4 0.6 0.1  2.5 0.6 0.1  2.6 0.6 0.1  2.7 0.6 0.1  2.8 0.6 0.1  2.9 0.6 0.1  3 0.6 0.1  3.1 0.6 0.1  3.2 0.6 0.1  3.3 0.6 0.1  3.4 0.6 0.1  3.5 0.6 0.1  3.6 0.6 0.1  3.7 0.6 0.1  3.8 0.6 0.1  3.9 0.6 0.1  4 0.6 0.1  0 0.7 0.1  0.1 0.7 0.1  0.2 0.7 0.1  0.3 0.7 0.1  0.4 0.7 0.1  0.5 0.7 0.1  0.6 0.7 0.1  0.7 0.7 0.1  0.8 0.7 0.1  0.9 0.7 0.1  1 0.7 0.1  1.1 0.7 0.1  1.2 0.7 0.1  1.3 0.7 0.1  1.4 0.7 0.1  1.5 0.7 0.1  1.6 0.7 0.1  1.7 0.7 0.1  1.8 0.7 0.1  1.9 0.7 0.1  2 0.7 0.1  2.1 0.7 0.1  2.2 0.7 0.1  2.3 0.7 0.1  2.4 0.7 0.1  2.5 0.7 0.1  2.6 0.7 0.1  2.7 0.7 0.1  2.8 0.7 0.1  2.9 0.7 0.1  3 0.7 0.1  3.1 0.7 0.1  3.2 0.7 0.1  3.3 0.7 0.1  3.4 0.7 0.1  3.5 0.7 0.1  3.6 0.7 0.1  3.7 0.7 0.1  3.8 0.7 0.1  3.9 0.7 0.1  4 0.7 0.1  0 0.8 0.1  0.1 0.8 0.1  0.2 0.8 0.1  0.3 0.8 0.1  0.4 0.8 0.1  0.5 0.8 0.1  0.6 0.8 0.1  0.7 0.8 0.1  0.8 0.8 0.1  0.9 0.8 0.1  1 0.8 0.1  1.1 0.8 0.1  1.2 0.8 0.1  1.3 0.8 0.1  1.4 0.8 0.1  1.5 0.8 0.1  1.6 0.8 0.1  1.7 0.8 0.1  1.8 0.8 0.1  1.9 0.8 0.1  2 0.8 0.1  2.1 0.8 0.1  2.2 0.8 0.1  2.3 0.8 0.1  2.4 0.8 0.1  2.5 0.8 0.1  2.6 0.8 0.1  2.7 0.8 0.1  2.8 0.8 0.1  2.9 0.8 0.1  3 0.8 0.1  3.1 0.8 0.1  3.2 0.8 0.1  3.3 0.8 0.1  3.4 0.8 0.1  3.5 0.8 0.1  3.6 0.8 0.1  3.7 0.8 0.1  3.8 0.8 0.1  3.9 0.8 0.1  4 0.8 0.1  0 0.9 0.1  0.1 0.9 0.1  0.2 0.9 0.1  0.3 0.9 0.1  0.4 0.9 0.1  0.5 0.9 0.1  0.6 0.9 0.1  0.7 0.9 0.1  0.8 0.9 0.1  0.9 0.9 0.1  1 0.9 0.1  1.1 0.9 0.1  1.2 0.9 0.1  1.3 0.9 0.1  1.4 0.9 0.1  1.5 0.9 0.1  1.6 0.9 0.1  1.7 0.9 0.1  1.8 0.9 0.1  1.9 0.9 0.1  2 0.9 0.1  2.1 0.9 0.1  2.2 0.9 0.1  2.3 0.9 0.1  2.4 0.9 0.1  2.5 0.9 0.1  2.6 0.9 0.1  2.7 0.9 0.1  2.8 0.9 0.1  2.9 0.9 0.1  3 0.9 0.1  3.1 0.9 0.1  3.2 0.9 0.1  3.3 0.9 0.1  3.4 0.9 0.1  3.5 0.9 0.1  3.6 0.9
[...]
<PointData  Vectors="f_5"> 
<DataArray  type="Float64"  Name="f_5"  NumberOfComponents="3" format="ascii">0.0000000000000000e+00 0.0000000000000000e+00 0.0000000000000000e+00  -1.1466789224779271e-02 -3.7920846165606027e-03 -7.0343557845677224e-03  -2.1146279708430339e-02 -7.1136028116152742e-03 -1.0177814208617559e-02  -3.0389361978342008e-02 -1.2128000056573850e-02 -1.1808764948704890e-02  -3.9554468055876695e-02 -1.9142411466109129e-02 -1.2578959449883688e-02  -4.8744939770700976e-02 -2.8146929436073290e-02 -1.2811921464654321e-02  -5.7986168714357113e-02 -3.9061215963535754e-02 -1.2703482320230918e-02  -6.7280503858602847e-02 -5.1794414819694656e-02 -1.2377679904791161e-02  -7.6625923839655719e-02 -6.6261788746419026e-02 -1.1913303697899627e-02  -8.6021937471289389e-02 -8.2388038447224365e-02 -1.1359895313361444e-02  -9.5470753870567041e-02 -1.0010633691727115e-01 -1.0748141461244578e-02  -1.0497680330280146e-01 -1.1935630143654660e-01 -1.0096731637166512e-02  -1.1454582266374998e-01 -1.4008204994391737e-01 -9.4168596226944581e-03  -1.2418396404416750e-01 -1.6223067667238350e-01 -8.7151379805913403e-03  -1.3389707340576515e-01 -1.8575117106709357e-01 -7.9954510632678916e-03  -1.4369016141471860e-01 -2.1059370140364755e-01 -7.2601081809558826e-03  -1.5356704299926263e-01 -2.3670916622328184e-01 -6.5105436470442044e-03  -1.6353011015235994e-01 -2.6404892890407283e-01 -5.7477294542769312e-03  -1.7358020373153502e-01 -2.9256467064241748e-01 -4.9724099208698913e-03  -1.8371655572365797e-01 -3.2220831599369681e-01 -4.1852290002690317e-03  -1.9393677991705793e-01 -3.5293200017539661e-01 -3.3867949883307756e-03  -2.0423689470066253e-01 -3.8468805832581565e-01 -2.5777102895457051e-03  -2.1461136633868566e-01 -4.1742902446505481e-01 -1.7585829386772046e-03  -2.2505316452449284e-01 -4.5110763282333527e-01 -9.3002972906723624e-04  -2.3555382443570380e-01 -4.8567681718306649e-01 -9.2676690567078827e-05  -2.4610351108352677e-01 -5.2108970543170552e-01 7.5283965060184469e-04  -2.5669108269270968e-01 -5.5729960694840985e-01 1.6058679373399931e-03  -2.6730415046878170e-01 -5.9425998989522277e-01 2.4657326766088740e-03  -2.7792913294662258e-01 -6.3192444405773229e-01 3.3317180698269441e-03  -2.8855130524605804e-01 -6.7024662294697723e-01 4.2030431159472631e-03  -2.9915484911533979e-01 -7.0918015778597177e-01 5.0788269337724090e-03  -3.0972292252289024e-01 -7.4867853966223019e-01 5.9580463092403580e-03  -3.2023779403293273e-01 -7.8869498397117277e-01 6.8394955331718245e-03  -3.3068113530326454e-01 -8.2918234325091278e-01 7.7217762072571555e-03  -3.4103464081242657e-01 -8.7009325842444907e-01 8.6033779595959918e-03  -3.5128124344460993e-01 -9.1138100123015742e-01 9.4829642533317514e-03  -3.6140729473209038e-01 -9.5300198006672121e-01 1.0360039365049705e-02  -3.7140613903064090e-01 -9.9492187948463806e-01 1.1236160803472993e-02  -3.8128355466191721e-01 -1.0371293635839265e+00 1.2116358596451545e-02  -3.9106634674082830e-01 -1.0796655800216788e+00 1.3006952360327423e-02  -4.0082483503435268e-01 -1.1226893927980353e+00 1.3878540465549665e-02  0.0000000000000000e+00 0.0000000000000000e+00 0.0000000000000000e+00  -8.5241063772190772e-03 -1.3171744208106185e-03 -6.1667777471021467e-03  -1.6110694770422745e-02 -4.6221596789348812e-03 -8.5306552867118468e-03  -2.3344992638797104e-02 -9.8232168785968646e-03 -9.7480904330086854e-03  -3.0504826213719964e-02 -1.7063922713740326e-02 -1.0303736795270451e-02  -3.7716027443800801e-02 -2.6325469155255368e-02 -1.0439419754037525e-02  -4.5028506506842196e-02 -3.7527849910374354e-02 -1.0304713702720384e-02  -5.2458832634550957e-02 -5.0578426512914769e-02 -9.9953767037384393e-03  -6.0011086075780193e-02 -6.5389188869780485e-02 -9.5727513848520920e-03  -6.7686182301961079e-02 -8.1881106657728978e-02 -9.0757180431056596e-03  -7.5485478665817160e-02 -9.9983683903103387e-02 -8.5285472586228341e-03  -8.3411699300280417e-02 -1.1963311509012452e-01 -7.9461383177724700e-03  -9.1468720031057757e-02 -1.4077037212870300e-01 -7.3374944818778536e-03  -9.9660968431090055e-02 -1.6333965599707695e-01 -6.7079948814599806e-03  -1.0799278473237353e-01 -1.8728728049515245e-01 -6.0608512197284619e-03  -1.1646788162098730e-01 -2.1256092503711532e-01 -5.3980208330949965e-03  -1.2508894057398978e-01 -2.3910916306867036e-01 -4.7207642078688182e-03  -1.3385733803604538e-01 -2.6688118054221815e-01 -4.0299750381059731e-03  -1.4277297856331445e-01 -2.9582661778446345e-01 -3.3263683117428704e-03  -1.5183420922982910e-01 -3.2589548712607297e-01 -2.6105822635458377e-03  -1.6103779237877602e-01 -3.5703813419509850e-01 -1.8832298432609736e-03  -1.7037891836732061e-01 -3.8920522222362636e-01 -1.1449219106150856e-03  -1.7985124452108683e-01 -4.2234772661512660e-01 -3.9627564402861410e-04  -1.8944695036401440e-01 -4.5641693217299539e-01 3.6208385931837017e-04  -1.9915680211159992e-01 -4.9136442853815854e-01 1.1295241763840205e-03  -2.0897022141531940e-01 -5.2714210109406934e-01 1.9054056921812888e-03  -2.1887535448840287e-01 -5.6370211526860503e-01 2.6890797161731642e-03  -2.2885913808389974e-01 -6.0099689208254226e-01 3.4798836441129700e-03  -2.3890735838256241e-01 -6.3897907228222328e-01 4.2771327431337389e-03  -2.4900469782570567e-01 -6.7760146608925709e-01 5.0801089955056960e-03  -2.5913476386444995e-01 -7.1681698704938446e-01 5.8880493254657700e-03  -2.6928009426155886e-01 -7.5657857522320571e-01 6.7001395677554823e-03  -2.7942214055499709e-01 -7.9683913443892773e-01 7.5155283842709116e-03  -2.8954125468929992e-01 -8.3755155419343885e-01 8.3333890078720867e-03  -2.9961676276814814e-01 -8.7866898038040808e-01 9.1530773243543723e-03  -3.0962733669274245e-01 -9.2014566479418769e-01 9.9744586771224001e-03  -3.1955212832214275e-01 -9.6193896795062062e-01 1.0798481595466612e-02  -3.2937365614163833e-01 -1.0040133416010708e+00 1.1627981932008133e-02  -3.3908468491679306e-01 -1.0463470646000084e+00 1.2468183137203498e-02  -3.4870526124954648e-01 -1.0889411675056744e+00 1.3323689075096920e-02  -3.5833888858441038e-01 -1.1318235887357411e+00 1.4164911060061163e-02  0.0000000000000000e+00 0.0000000000000000e+00 0.0000000000000000e+00  -6.1126040370872159e-03 4.9890080846504028e-06 -4.6783839444016206e-03  -1.1421136870307817e-02 -2.9019088818535406e-03 -6.5409022242536594e-03  -1.6651853802885870e-02 -8.1886657027383479e-03 -7.4194278710195188e-03  -2.1905186061636578e-02 -1.5631468595603881e-02 -7.7859765436447178e-03  -2.7248209035904167e-02 -2.5131150209932188e-02 -7.8385187630314844e-03  -3.2723643661773334e-02 -3.6594304033101425e-02 -7.6883134217956926e-03  -3.8355588560719064e-02 -4.9927603998133285e-02 -7.4047370945823279e-03  -4.4157195716239515e-02 -6.5043187465396363e-02 -7.0321937444855964e-03  -5.0136296765120228e-02 -8.1860981656635967e-02 -6.5990883281478096e-03  -5.6298617969440870e-02 -1.0030841793936356e-01 -6.1234061984799370e-03  -6.2649252598979591e-02 -1.2031905422490187e-01 -5.6163851612173752e-03  -6.9193099290049978e-02 -1.4183102014907267e-01 -5.0849629234985044e-03  -7.5934779580617173e-02 -1.6478567979298578e-01 -4.5333970258250728e-03  -8.2878350188801991e-02 -1.8912662054456533e-01 -3.9643195631056888e-03  -9.0026981058865432e-02 -2.1479894852235518e-01 -3.3794089768463794e-03  -9.7382678734460063e-02 -2.4174882730665037e-01 -2.7798067853936474e-03  -1.0494608251953608e-01 -2.6992319217078625e-01 -2.1663680713633962e-03  -1.1271633430832180e-01 -2.9926958250220242e-01 -1.5398063105637324e-03  -1.2069101146686004e-01 -3.2973604918293131e-01 -9.0077297329253130e-04  -1.2886610881272048e-01 -3.6127110658369238e-01 -2.4989824331420198e-04  -1.3723605635509104e-01 -3.9382370899624547e-01 4.1219040962683364e-04  -1.4579376163631055e-01 -4.2734323870454299e-01 1.0848614557920600e-03  -1.5453066799842399e-01 -4.6177949792823764e-01 1.7674781120498538e-03  -1.6343682226967918e-01 -4.9708270013116118e-01 2.4593991052313580e-03  -1.7250094693924239e-01 -5.3320345819490622e-01 3.1599793618576201e-03  -1.8171051270305477e-01 -5.7009276815210563e-01 3.8685695969853436e-03  -1.9105180715916556e-01 -6.0770198793881525e-01 4.5845145397236890e-03  -2.0050999418496704e-01 -6.4598281135930802e-01 5.3071504311831405e-03  -2.1006915589573172e-01 -6.8488723867428536e-01 6.0358039464555226e-03  -2.1971230506406167e-01 -7.2436754766581946e-01 6.7697975208283311e-03  -2.2942135155157059e-01 -7.6437627372197836e-01 7.5084711532763561e-03  -2.3917700591197780e-01 -8.0486621557833538e-01 8.2512391272589643e-03  -2.4895861876310782e-01 -8.4579049547888718e-01 8.9977118919321482e-03  -2.5874401281284820e-01 -8.8710271654997652e-01 9.7479254507436934e-03  -2.6850951349346203e-01 -9.2875726250167001e-01 1.0502721717447346e-02  -2.7823068384960931e-01 -9.7070971851405563e-01 1.1264285044274673e-02  -2.8788476691801840e-01 -1.0129170669762770e+00 1.2036690975367676e-02  -2.9745654466303506e-01 -1.0553361570574298e+00 1.2825834119103268e-02  -3.0695028393906376e-01 -1.0979151014796988e+00 1.3636060291555051e-02  -3.1641549089020682e-01 -1.1405559932194227e+00 1.4443305948537445e-02  0.0000000000000000e+00 0.0000000000000000e+00 0.0000000000000000e+00  -3.8804974885338142e-03 6.3948214954990558e-04 -3.0879703135033841e-03  -7.1380681818112969e-03 -1.9837256602460384e-03 -4.3545580765761149e-03  -1.0392265241647110e-02 -7.2668595781440869e-03 -4.9429262764329601e-03  -1.3751092986962908e-02 -1.4860572834031593e-02 -5.1575657118850199e-03  -1.7249478902239282e-02 -2.4570745636559071e-02 -5.1483031423035378e-03  -2.0916631342818522e-02 -3.6271641553584671e-02 -4.9950886086219401e-03  -2.4777082968797427e-02 -4.9862386374135946e-02 -4.7451250295253589e-03  -2.8849607286695972e-02 -6.5254297295260721e-02 -4.4279987809547703e-03  -3.3148190344110116e-02 -8.2367180539983209e-02 -4.0627098749513096e-03  -3.7683503457584089e-02 -1.0112756319317859e-01 -3.6615217961427681e-03  -4.2464039868856711e-02 -1.2146727437932134e-01 -3.2323269215969240e-03  -4.7496758270429838e-02 -1.4332218285963008e-01 -2.7801885657471777e-03  -5.2787340458550019e-02 -1.6663114059737177e-01 -2.3083668654450690e-03  -5.8340217778679482e-02 -1.9133516470407164e-01 -1.8189995201640795e-03  -6.4158490697572221e-02 -2.1737684541067065e-01 -1.3135465456709714e-03  -7.0243820991806774e-02 -2.4469994173152113e-01 -7.9307407004904973e-04  -7.6596338967705846e-02 -2.7324911927297157e-01 -2.5843005076928410e-04  -8.3214583323520136e-02 -3.0296978827779641e-01 2.8965092665676290e-04  -9.0095476921327522e-02 -3.3380800804949406e-01 8.5048808068461279e-04  -9.7234334644033124e-02 -3.6571043260437219e-01 1.4234227386572913e-03  -1.0462489683632652e-01 -3.9862428000503780e-01 2.0078030846964494e-03  -1.1225938153295673e-01 -4.3249731377935274e-01 2.6029780303591624e-03  -1.2012854946084489e-01 -4.6727782916991289e-01 3.2082956579636253e-03  -1.2822177689032993e-01 -5.0291463999084829e-01 3.8231035056008381e-03  -1.3652713236100328e-01 -5.3935706396873684e-01 4.4467491464867063e-03  -1.4503145384325342e-01 -5.7655490599484061e-01 5.0785803320839845e-03  -1.5372042279136511e-01 -6.1445844008191819e-01 5.7179446783532911e-03  -1.6257863053882346e-01 -6.5301839232716319e-01 6.3641897815099385e-03  -1.7158963025370105e-01 -6.9218592902304488e-01 7.0166661684916811e-03  -1.8073596387511648e-01 -7.3191265595931643e-01 7.6747382118478686e-03  -1.8999914805835841e-01 -7.7215063535713757e-01 8.3378128551037690e-03  -1.9935959745116907e-01 -8.1285242109941969e-01 9.0054034606769310e-03  -2.0879646312215450e-01 -8.5397108992800685e-01 9.6772561001770147e-03  -2.1828738584450830e-01 -8.9546018422112639e-01 1.0353574182929846e-02  -2.2780825016698408e-01 -9.3727334404993468e-01 1.1035370194232511e-02  -2.3733323537447454e-01 -9.7936312765256339e-01 1.1724916480133716e-02  -2.4683576688541045e-01 -1.0216779318706308e+00 1.2426097674794400e-02  -2.5629105286175208e-01 -1.0641544965718133e+00 1.3144037087715438e-02  -2.6567978849708462e-01 -1.1066993411772899e+00 1.3881912504238017e-02  -2.7498915463049950e-01 -1.1491360953358889e+00 1.4621693401963304e-02  0.0000000000000000e+00 0.0000000000000000e+00 0.0000000000000000e+00  -1.7351044698462469e-03 8.3429626392517891e-04 -1.4730975654573589e-03  -3.0800779292796676e-03 -1.7040496462677641e-03 -2.0974894322442297e-03  -4.4431573685354405e-03 -7.0222484440060013e-03 -2.3854838107411212e-03  -5.9336902613407747e-03 -1.4743842198660623e-02 -2.4653629331683915e-03  -7.5977199448598789e-03 -2.4636564991437248e-02 -2.4105870821197685e-03  -9.4662741344702563e-03 -3.6549787890334008e-02 -2.2651356785627756e-03  -1.1566327232508571e-02 -5.0373352054884822e-02 -2.0552398993204509e-03  -1.3920907210760230e-02 -6.6016359961065002e-02 -1.7973100338823946e-03  -1.6548756685703981e-02 -8.3398203252081290e-02 -1.5020903632863309e-03  -1.9464753845244959e-02 -1.0244476718442255e-01 -1.1768106795123092e-03  -2.2680611799088018e-02 -1.2308655208734989e-01 -8.2640396976614409e-04  -2.6205490352516719e-02 -1.4525751453339805e-01 -4.5426888843364563e-04  -3.0046407033782033e-02 -1.6889423942962775e-01 -6.2780771566172801e-05  -3.4208466850231753e-02 -1.9393532222950871e-01 3.4635620027863583e-04  -3.8694970408057215e-02 -2.2032091461164519e-01 7.7186658262325906e-04  -4.3507457036885792e-02 -2.4799240222599470e-01 1.2127398336753440e-03  -4.8645723180843127e-02 -2.7689218536254218e-01 1.6681227313351313e-03  -5.4107839833861603e-02 -3.0696353547340222e-01 2.1372512687189231e-03  -5.9890180495883995e-02 -3.3815050434319815e-01 2.6194094514452840e-03  -6.5987463344361216e-02 -3.7039786753608755e-01 3.1139057780221221e-03  -7.2392807056045394e-02 -4.0365108853360421e-01 3.6200608493896303e-03  -7.9097797795937397e-02 -4.3785629411004007e-01 4.1372015983934980e-03  -8.6092564348269479e-02 -4.7296025476916570e-01 4.6646591382978296e-03  -9.3365858524323719e-02 -5.0891036654803345e-01 5.2017683020266197e-03  -1.0090513841373770e-01 -5.4565463238096923e-01 5.7478676910160485e-03  -1.0869665248686143e-01 -5.8314164277332947e-01 6.3022995928113277e-03  -1.1672552283211694e-01 -6.2132055703555045e-01 6.8644095965245009e-03  -1.2497582575911151e-01 -6.6014108798674720e-01 7.4335463146759729e-03  -1.3343066734627818e-01 -6.9955349481421536e-01 8.0090625731087852e-03  -1.4207224967728410e-01 -7.3950858987889623e-01 8.5903211633564739e-03  -1.5088191916422403e-01 -7.7995776294780461e-01 9.1767113654842962e-03  -1.5984017862122038e-01 -8.2085301331463323e-01 9.7676877230257822e-03  -1.6892662421251900e-01 -8.6214693955019772e-01 1.0362850612374958e-02  -1.7811973024517569e-01 -9.0379253315068553e-01 1.0962097963024357e-02  -1.8739635450812206e-01 -9.4574239537522775e-01 1.1565880630871968e-02  -1.9673083843439435e-01 -9.8794657073592784e-01 1.2175557820710635e-02  -2.0609372644061474e-01 -1.0303474839231836e+00 1.2793700239216594e-02  -2.1545009869432849e-01 -1.0728691571977862e+00 1.3423838109913768e-02  -2.2475590161594219e-01 -1.1153944514689758e+00 1.4068304925065101e-02  -2.3394406469675599e-01 -1.1577109120973719e+00 1.4718006422897568e-02  0.0000000000000000e+00 0.0000000000000000e+00 0.0000000000000000e+00  3.7060246571493589e-04 7.0597467476767105e-04 1.4105087848622822e-04  8.7573215200060844e-04 -1.9481749878188625e-03 1.6982744562867762e-04  1.3482033315640764e-03 -7.3879360597512321e-03 1.9152347687722619e-04  1.6941020549449801e-03 -1.5251812412262771e-02 2.4605435933485283e-04  1.8503040427118110e-03 -2.5311560678841088e-02 3.4084439029291938e-04  1.7722104413099150e-03 -3.7414077419029627e-02 4.7369575096557271e-04  1.4251255498235985e-03 -5.1446687246923223e-02 6.4069654155225416e-04  7.8075731406540311e-04 -6.7317484044791279e-02 8.3820626946059856e-04  -1.8391329149481658e-04 -8.4945355390445967e-02 1.0630744910525515e-03  -1.4873191956816694e-03 -1.0425536853140709e-01 1.3126104468726024e-03  -3.1439738302200650e-03 -1.2517663966842529e-01 1.5845491210864351e-03  -5.1650782975054535e-03 -1.4764124473104734e-01 1.8770107134910127e-03  -7.5590046547768051e-03 -1.7158356372329123e-01 2.1884448206186576e-03  -1.0331644044841003e-02 -1.9693982935932575e-01 2.5175651931990022e-03  -1.3486643586742187e-02 -2.2364779744824675e-01 2.8632849412880347e-03  -1.7025566347530986e-02 -2.5164650548403189e-01 3.2246595917939276e-03  -2.0948005224946373e-02 -2.8087609971789967e-01 3.6008415151386965e-03  -2.5251673290868863e-02 -3.1127771462859438e-01 3.9910461519452739e-03  -2.9932484890023110e-02 -3.4279339058312491e-01 4.3945286600553888e-03  -3.4984635368768044e-02 -3.7536601765088928e-01 4.8105688445896095e-03  -4.0400682990293257e-02 -4.0893929603199758e-01 5.2384621513947103e-03  -4.6171634024588376e-02 -4.4345770602452056e-01 5.6775147712755068e-03  -5.2287030693912225e-02 -4.7886648262137799e-01 6.1270412952210912e-03  -5.8735041179771817e-02 -5.1511159160913400e-01 6.5863637479384183e-03  -6.5502550955113439e-02 -5.5213970549017966e-01 7.0548111435490011e-03  -7.2575255124851051e-02 -5.8989817880301965e-01 7.5317189317638499e-03  -7.9937752173461649e-02 -6.2833502364268257e-01 8.0164278424273861e-03  -8.7573640514397352e-02 -6.6739888751747956e-01 8.5082817241188390e-03  -9.5465620411156013e-02 -7.0703903705355120e-01 9.0066240808728496e-03  -1.0359560465620971e-01 -7.4720535180383485e-01 9.5107932907925619e-03  -1.1194483999588339e-01 -7.8784833026748524e-01 1.0020117257624623e-02  -1.2049403241555963e-01 -8.2891909900940230e-01 1.0533910171084954e-02  -1.2922343981663928e-01 -8.7036938019781751e-01 1.1051478566037012e-02  -1.3811281556030469e-01 -9.1215127724905332e-01 1.1572153915048703e-02  -1.4714090070558070e-01 -9.5421650497040311e-01 1.2095389095993246e-02  -1.5628382434634577e-01 -9.9651417960458299e-01 1.2620982790375617e-02  -1.6551149482370572e-01 -1.0389853829348943e+00 1.3149460480282838e-02  -1.7478134584537974e-01 -1.0815514778171078e+00 1.3682375231390121e-02  -1.8402821040816125e-01 -1.1240907417710104e+00 1.4221860633173166e-02  -1.9314147349328631e-01 -1.1663887580128565e+00 1.4769667967752186e-02  0.0000000000000000e+00 0.0000000000000000e+00 0.0000000000000000e+00  2.4735296811017947e-03 2.9295761949978263e-04 1.7382244561721842e-03  4.8225147619846724e-03 -2.6636832179973381e-03 2.4103131286331049e-03  7.1147135892061049e-03 -8.3156935089446493e-03 2.7423698268779161e-03  9.2796460055923034e-03 -1.6348828645910096e-02 2.9351082943277138e-03  1.1242521666483575e-02 -2.6569851469735624e-02 3.0728527126402923e-03  1.2944843684914491e-02 -3.8843561557323873e-02 3.1952022731813971e-03  1.4342239906370817e-02 -5.3064422676212725e-02 3.3213155692650722e-03  1.5400186995024190e-02 -6.9142665324964173e-02 3.4604940343053031e-03  1.6091299760365479e-02 -8.6997175647630820e-02 3.6170554594506534e-03  1.6393823761789026e-02 -1.0655196480530031e-01 3.7927020589895400e-03  1.6290677182324034e-02 -1.2773446729775761e-01 3.9877592703587211e-03  1.5768742688744973e-02 -1.5047468650210025e-01 4.2018546491363797e-03  1.4818313529085927e-02 -1.7470470756545345e-01 4.4342912579785655e-03  1.3432661977299861e-02 -2.0035837377472523e-01 4.6842460098279713e-03  1.1607708678855050e-02 -2.2737104885720788e-01 4.9508676464395393e-03  9.3417706428079225e-03 -2.5567943650583569e-01 5.2333191846693451e-03  6.6353661404164009e-03 -2.8522144404166611e-01 5.5307916573429311e-03  3.4910579437253584e-03 -3.1593608104020304e-01 5.8425046246107842e-03  -8.6679229726662540e-05 -3.4776338467110357e-01 6.1677018352927770e-03  -4.0915768386259096e-03 -3.8064436424499798e-01 6.5056461481743872e-03  -8.5156823967394209e-03 -4.1452095855889182e-01 6.8556154022945447e-03  -1.3349464705295046e-02 -4.4933600093754017e-01 7.2168996610769420e-03  -1.8581916366022098e-02 -4.8503318815731489e-01 7.5887996686528087e-03  -2.4200654602562269e-02 -5.2155705057507684e-01 7.9706261277735693e-03  -3.0192021148719911e-02 -5.5885292173283840e-01 8.3616993283913612e-03  -3.6541182257252808e-02 -5.9686690650917495e-01 8.7613485845182814e-03  -4.3232230776297155e-02 -6.3554584762318589e-01 9.1689107680011789e-03  -5.0248293856258980e-02 -6.7483729105827184e-01 9.5837268595783936e-03  -5.7571652318557445e-02 -7.1468945179884147