<?xml version="1.0"?>
<VTKFile type="UnstructuredGrid"  version="0.1"  >
<UnstructuredGrid>
<Piece  NumberOfPoints="4961" NumberOfCells="24000">
<Points>
<DataArray  type="Float64"  NumberOfComponents="3"  format="ascii">0 0 0  0.1 0 0  0.2 0 0  0.3 0 0  0.4 0 0  0.5 0 0  0.6 0 0  0.7 0 0  0.8 0 0  0.9 0 0  1 0 0  1.1 0 0  1.2 0 0  1.3 0 0  1.4 0 0  1.5 0 0  1.6 0 0  1.7 0 0  1.8 0 0  1.9 0 0  2 0 0  2.1 0 0  2.2 0 0  2.3 0 0  2.4 0 0  2.5 0 0  2.6 0 0  2.7 0 0  2.8 0 0  2.9 0 0  3 0 0  3.1 0 0  3.2 0 0  3.3 0 0  3.4 0 0  3.5 0 0  3.6 0 0  3.7 0 0  3.8 0 0  3.9 0 0  4 0 0  0 0.1 0  0.1 0.1 0  0.2 0.1 0  0.3 0.1 0  0.4 0.1 0  0.5 0.1 0  0.6 0.1 0  0.7 0.1 0  0.8 0.1 0  0.9 0.1 0  1 0.1 0  1.1 0.1 0  1.2 0.1 0  1.3 0.1 0  1.4 0.1 0  1.5 0.1 0  1.6 0.1 0  1.7 0.1 0  1.8 0.1 0  1.9 0.1 0  2 0.1 0  2.1 0.1 0  2.2 0.1 0  2.3 0.1 0  2.4 0.1 0  2.5 0.1 0  2.6 0.1 0  2.7 0.1 0  2.8 0.1 0  2.9 0.1 0  3 0.1 0  3.1 0.1 0  3.2 0.1 0  3.3 0.1 0  3.4 0.1 0  3.5 0.1 0  3.6 0.1 0  3.7 0.1 0  3.8 0.1 0  3.9 0.1 0  4 0.1 0  0 0.2 0  0.1 0.2 0  0.2 0.2 0  0.3 0.2 0  0.4 0.2 0  0.5 0.2 0  0.6 0.2 0  0.7 0.2 0  0.8 0.2 0  0.9 0.2 0  1 0.2 0  1.1 0.2 0  1.2 0.2 0  1.3 0.2 0  1.4 0.2 0  1.5 0.2 0  1.6 0.2 0  1.7 0.2 0  1.8 0.2 0  1.9 0.2 0  2 0.2 0  2.1 0.2 0  2.2 0.2 0  2.3 0.2 0  2.4 0.2 0  2.5 0.2 0  2.6 0.2 0  2.7 0.2 0  2.8 0.2 0  2.9 0.2 0  3 0.2 0  3.1 0.2 0  3.2 0.2 0  3.3 0.2 0  3.4 0.2 0  3.5 0.2 0  3.6 0.2 0  3.7 0.2 0  3.8 0.2 0  3.9 0.2 0  4 0.2 0  0 0.3 0  0.1 0.3 0  0.2 0.3 0  0.3 0.3 0  0.4 0.3 0  0.5 0.3 0  0.6 0.3 0  0.7 0.3 0  0.8 0.3 0  0.9 0.3 0  1 0.3 0  1.1 0.3 0  1.2 0.3 0  1.3 0.3 0  1.4 0.3 0  1.5 0.3 0  1.6 0.3 0  1.7 0.3 0  1.8 0.3 0  1.9 0.3 0  2 0.3 0  2.1 0.3 0  2.2 0.3 0  2.3 0.3 0  2.4 0.3 0  2.5 0.3 0  2.6 0.3 0  2.7 0.3 0  2.8 0.3 0  2.9 0.3 0  3 0.3 0  3.1 0.3 0  3.2 0.3 0  3.3 0.3 0  3.4 0.3 0  3.5 0.3 0  3.6 0.3 0  3.7 0.3 0  3.8 0.3 0  3.9 0.3 0  4 0.3 0  0 0.4 0  0.1 0.4 0  0.2 0.4 0  0.3 0.4 0  0.4 0.4 0  0.5 0.4 0  0.6 0.4 0  0.7 0.4 0  0.8 0.4 0  0.9 0.4 0  1 0.4 0  1.1 0.4 0  1.2 0.4 0  1.3 0.4 0  1.4 0.4 0  1.5 0.4 0  1.6 0.4 0  1.7 0.4 0  1.8 0.4 0  1.9 0.4 0  2 0.4 0  2.1 0.4 0  2.2 0.4 0  2.3 0.4 0  2.4 0.4 0  2.5 0.4 0  2.6 0.4 0  2.7 0.4 0  2.8 0.4 0  2.9 0.4 0  3 0.4 0  3.1 0.4 0  3.2 0.4 0  3.3 0.4 0  3.4 0.4 0  3.5 0.4 0  3.6 0.4 0  3.7 0.4 0  3.8 0.4 0  3.9 0.4 0  4 0.4 0  0 0.5 0  0.1 0.5 0  0.2 0.5 0  0.3 0.5 0  0.4 0.5 0  0.5 0.5 0  0.6 0.5 0  0.7 0.5 0  0.8 0.5 0  0.9 0.5 0  1 0.5 0  1.1 0.5 0  1.2 0.5 0  1.3 0.5 0  1.4 0.5 0  1.5 0.5 0  1.6 0.5 0  1.7 0.5 0  1.8 0.5 0  1.9 0.5 0  2 0.5 0  2.1 0.5 0  2.2 0.5 0  2.3 0.5 0  2.4 0.5 0  2.5 0.5 0  2.6 0.5 0  2.7 0.5 0  2.8 0.5 0  2.9 0.5 0  3 0.5 0  3.1 0.5 0  3.2 0.5 0  3.3 0.5 0  3.4 0.5 0  3.5 0.5 0  3.6 0.5 0  3.7 0.5 0  3.8 0.5 0  3.9 0.5 0  4 0.5 0  0 0.6 0  0.1 0.6 0  0.2 0.6 0  0.3 0.6 0  0.4 0.6 0  0.5 0.6 0  0.6 0.6 0  0.7 0.6 0  0.8 0.6 0  0.9 0.6 0  1 0.6 0  1.1 0.6 0  1.2 0.6 0  1.3 0.6 0  1.4 0.6 0  1.5 0.6 0  1.6 0.6 0  1.7 0.6 0  1.8 0.6 0  1.9 0.6 0  2 0.6 0  2.1 0.6 0  2.2 0.6 0  2.3 0.6 0  2.4 0.6 0  2.5 0.6 0  2.6 0.6 0  2.7 0.6 0  2.8 0.6 0  2.9 0.6 0  3 0.6 0  3.1 0.6 0  3.2 0.6 0  3.3 0.6 0  3.4 0.6 0  3.5 0.6 0  3.6 0.6 0  3.7 0.6 0  3.8 0.6 0  3.9 0.6 0  4 0.6 0  0 0.7 0  0.1 0.7 0  0.2 0.7 0  0.3 0.7 0  0.4 0.7 0  0.5 0.7 0  0.6 0.7 0  0.7 0.7 0  0.8 0.7 0  0.9 0.7 0  1 0.7 0  1.1 0.7 0  1.2 0.7 0  1.3 0.7 0  1.4 0.7 0  1.5 0.7 0  1.6 0.7 0  1.7 0.7 0  1.8 0.7 0  1.9 0.7 0  2 0.7 0  2.1 0.7 0  2.2 0.7 0  2.3 0.7 0  2.4 0.7 0  2.5 0.7 0  2.6 0.7 0  2.7 0.7 0  2.8 0.7 0  2.9 0.7 0  3 0.7 0  3.1 0.7 0  3.2 0.7 0  3.3 0.7 0  3.4 0.7 0  3.5 0.7 0  3.6 0.7 0  3.7 0.7 0  3.8 0.7 0  3.9 0.7 0  4 0.7 0  0 0.8 0  0.1 0.8 0  0.2 0.8 0  0.3 0.8 0  0.4 0.8 0  0.5 0.8 0  0.6 0.8 0  0.7 0.8 0  0.8 0.8 0  0.9 0.8 0  1 0.8 0  1.1 0.8 0  1.2 0.8 0  1.3 0.8 0  1.4 0.8 0  1.5 0.8 0  1.6 0.8 0  1.7 0.8 0  1.8 0.8 0  1.9 0.8 0  2 0.8 0  2.1 0.8 0  2.2 0.8 0  2.3 0.8 0  2.4 0.8 0  2.5 0.8 0  2.6 0.8 0  2.7 0.8 0  2.8 0.8 0  2.9 0.8 0  3 0.8 0  3.1 0.8 0  3.2 0.8 0  3.3 0.8 0  3.4 0.8 0  3.5 0.8 0  3.6 0.8 0  3.7 0.8 0  3.8 0.8 0  3.9 0.8 0  4 0.8 0  0 0.9 0  0.1 0.9 0  0.2 0.9 0  0.3 0.9 0  0.4 0.9 0  0.5 0.9 0  0.6 0.9 0  0.7 0.9 0  0.8 0.9 0  0.9 0.9 0  1 0.9 0  1.1 0.9 0  1.2 0.9 0  1.3 0.9 0  1.4 0.9 0  1.5 0.9 0  1.6 0.9 0  1.7 0.9 0  1.8 0.9 0  1.9 0.9 0  2 0.9 0  2.1 0.9 0  2.2 0.9 0  2.3 0.9 0  2.4 0.9 0  2.5 0.9 0  2.6 0.9 0  2.7 0.9 0  2.8 0.9 0  2.9 0.9 0  3 0.9 0  3.1 0.9 0  3.2 0.9 0  3.3 0.9 0  3.4 0.9 0  3.5 0.9 0  3.6 0.9 0  3.7 0.9 0  3.8 0.9 0  3.9 0.9 0  4 0.9 0  0 1 0  0.1 1 0  0.2 1 0  0.3 1 0  0.4 1 0  0.5 1 0  0.6 1 0  0.7 1 0  0.8 1 0  0.9 1 0  1 1 0  1.1 1 0  1.2 1 0  1.3 1 0  1.4 1 0  1.5 1 0  1.6 1 0  1.7 1 0  1.8 1 0  1.9 1 0  2 1 0  2.1 1 0  2.2 1 0  2.3 1 0  2.4 1 0  2.5 1 0  2.6 1 0  2.7 1 0  2.8 1 0  2.9 1 0  3 1 0  3.1 1 0  3.2 1 0  3.3 1 0  3.4 1 0  3.5 1 0  3.6 1 0  3.7 1 0  3.8 1 0  3.9 1 0  4 1 0  0 0 0.1  0.1 0 0.1  0.2 0 0.1  0.3 0 0.1  0.4 0 0.1  0.5 0 0.1  0.6 0 0.1  0.7 0 0.1  0.8 0 0.1  0.9 0 0.1  1 0 0.1  1.1 0 0.1  1.2 0 0.1  1.3 0 0.1  1.4 0 0.1  1.5 0 0.1  1.6 0 0.1  1.7 0 0.1  1.8 0 0.1  1.9 0 0.1  2 0 0.1  2.1 0 0.1  2.2 0 0.1  2.3 0 0.1  2.4 0 0.1  2.5 0 0.1  2.6 0 0.1  2.7 0 0.1  2.8 0 0.1  2.9 0 0.1  3 0 0.1  3.1 0 0.1  3.2 0 0.1  3.3 0 0.1  3.4 0 0.1  3.5 0 0.1  3.6 0 0.1  3.7 0 0.1  3.8 0 0.1  3.9 0 0.1  4 0 0.1  0 0.1 0.1  0.1 0.1 0.1  0.2 0.1 0.1  0.3 0.1 0.1  0.4 0.1 0.1  0.5 0.1 0.1  0.6 0.1 0.1  0.7 0.1 0.1  0.8 0.1 0.1  0.9 0.1 0.1  1 0.1 0.1  1.1 0.1 0.1  1.2 0.1 0.1  1.3 0.1 0.1  1.4 0.1 0.1  1.5 0.1 0.1  1.6 0.1 0.1  1.7 0.1 0.1  1.8 0.1 0.1  1.9 0.1 0.1  2 0.1 0.1  2.1 0.1 0.1  2.2 0.1 0.1  2.3 0.1 0.1  2.4 0.1 0.1  2.5 0.1 0.1  2.6 0.1 0.1  2.7 0.1 0.1  2.8 0.1 0.1  2.9 0.1 0.1  3 0.1 0.1  3.1 0.1 0.1  3.2 0.1 0.1  3.3 0.1 0.1  3.4 0.1 0.1  3.5 0.1 0.1  3.6 0.1 0.1  3.7 0.1 0.1  3.8 0.1 0.1  3.9 0.1 0.1  4 0.1 0.1  0 0.2 0.1  0.1 0.2 0.1  0.2 0.2 0.1  0.3 0.2 0.1  0.4 0.2 0.1  0.5 0.2 0.1  0.6 0.2 0.1  0.7 0.2 0.1  0.8 0.2 0.1  0.9 0.2 0.1  1 0.2 0.1  1.1 0.2 0.1  1.2 0.2 0.1  1.3 0.2 0.1  1.4 0.2 0.1  1.5 0.2 0.1  1.6 0.2 0.1  1.7 0.2 0.1  1.8 0.2 0.1  1.9 0.2 0.1  2 0.2 0.1  2.1 0.2 0.1  2.2 0.2 0.1  2.3 0.2 0.1  2.4 0.2 0.1  2.5 0.2 0.1  2.6 0.2 0.1  2.7 0.2 0.1  2.8 0.2 0.1  2.9 0.2 0.1  3 0.2 0.1  3.1 0.2 0.1  3.2 0.2 0.1  3.3 0.2 0.1  3.4 0.2 0.1  3.5 0.2 0.1  3.6 0.2 0.1  3.7 0.2 0.1  3.8 0.2 0.1  3.9 0.2 0.1  4 0.2 0.1  0 0.3 0.1  0.1 0.3 0.1  0.2 0.3 0.1  0.3 0.3 0.1  0.4 0.3 0.1  0.5 0.3 0.1  0.6 0.3 0.1  0.7 0.3 0.1  0.8 0.3 0.1  0.9 0.3 0.1  1 0.3 0.1  1.1 0.3 0.1  1.2 0.3 0.1  1.3 0.3 0.1  1.4 0.3 0.1  1.5 0.3 0.1  1.6 0.3 0.1  1.7 0.3 0.1  1.8 0.3 0.1  1.9 0.3 0.1  2 0.3 0.1  2.1 0.3 0.1  2.2 0.3 0.1  2.3 0.3 0.1  2.4 0.3 0.1  2.5 0.3 0.1  2.6 0.3 0.1  2.7 0.3 0.1  2.8 0.3 0.1  2.9 0.3 0.1  3 0.3 0.1  3.1 0.3 0.1  3.2 0.3 0.1  3.3 0.3 0.1  3.4 0.3 0.1  3.5 0.3 0.1  3.6 0.3 0.1  3.7 0.3 0.1  3.8 0.3 0.1  3.9 0.3 0.1  4 0.3 0.1  0 0.4 0.1  0.1 0.4 0.1  0.2 0.4 0.1  0.3 0.4 0.1  0.4 0.4 0.1  0.5 0.4 0.1  0.6 0.4 0.1  0.7 0.4 0.1  0.8 0.4 0.1  0.9 0.4 0.1  1 0.4 0.1  1.1 0.4 0.1  1.2 0.4 0.1  1.3 0.4 0.1  1.4 0.4 0.1  1.5 0.4 0.1  1.6 0.4 0.1  1.7 0.4 0.1  1.8 0.4 0.1  1.9 0.4 0.1  2 0.4 0.1  2.1 0.4 0.1  2.2 0.4 0.1  2.3 0.4 0.1  2.4 0.4 0.1  2.5 0.4 0.1  2.6 0.4 0.1  2.7 0.4 0.1  2.8 0.4 0.1  2.9 0.4 0.1  3 0.4 0.1  3.1 0.4 0.1  3.2 0.4 0.1  3.3 0.4 0.1  3.4 0.4 0.1  3.5 0.4 0.1  3.6 0.4 0.1  3.7 0.4 0.1  3.8 0.4 0.1  3.9 0.4 0.1  4 0.4 0.1  0 0.5 0.1  0.1 0.5 0.1  0.2 0.5 0.1  0.3 0.5 0.1  0.4 0.5 0.1  0.5 0.5 0.1  0.6 0.5 0.1  0.7 0.5 0.1  0.8 0.5 0.1  0.9 0.5 0.1  1 0.5 0.1  1.1 0.5 0.1  1.2 0.5 0.1  1.3 0.5 0.1  1.4 0.5 0.1  1.5 0.5 0.1  1.6 0.5 0.1  1.7 0.5 0.1  1.8 0.5 0.1  1.9 0.5 0.1  2 0.5 0.1  2.1 0.5 0.1  2.2 0.5 0.1  2.3 0.5 0.1  2.4 0.5 0.1  2.5 0.5 0.1  2.6 0.5 0.1  2.7 0.5 0.1  2.8 0.5 0.1  2.9 0.5 0.1  3 0.5 0.1  3.1 0.5 0.1  3.2 0.5 0.1  3.3 0.5 0.1  3.4 0.5 0.1  3.5 0.5 0.1  3.6 0.5 0.1  3.7 0.5 0.1  3.8 0.5 0.1  3.9 0.5 0.1  4 0.5 0.1  0 0.6 0.1  0.1 0.6 0.1  0.2 0.6 0.1  0.3 0.6 0.1  0.4 0.6 0.1  0.5 0.6 0.1  0.6 0.6 0.1  0.7 0.6 0.1  0.8 0.6 0.1  0.9 0.6 0.1  1 0.6 0.1  1.1 0.6 0.1  1.2 0.6 0.1  1.3 0.6 0.1  1.4 0.6 0.1  1.5 0.6 0.1  1.6 0.6 0.1  1.7 0.6 0.1  1.8 0.6 0.1  1.9 0.6 0.1  2 0.6 0.1  2.1 0.6 0.1  2.2 0.6 0.1  2.3 0.6 0.1  2.4 0.6 0.1  2.5 0.6 0.1  2.6 0.6 0.1  2.7 0.6 0.1  2.8 0.6 0.1  2.9 0.6 0.1  3 0.6 0.1  3.1 0.6 0.1  3.2 0.6 0.1  3.3 0.6 0.1  3.4 0.6 0.1  3.5 0.6 0.1  3.6 0.6 0.1  3.7 0.6 0.1  3.8 0.6 0.1  3.9 0.6 0.1  4 0.6 0.1  0 0.7 0.1  0.1 0.7 0.1  0.2 0.7 0.1  0.3 0.7 0.1  0.4 0.7 0.1  0.5 0.7 0.1  0.6 0.7 0.1  0.7 0.7 0.1  0.8 0.7 0.1  0.9 0.7 0.1  1 0.7 0.1  1.1 0.7 0.1  1.2 0.7 0.1  1.3 0.7 0.1  1.4 0.7 0.1  1.5 0.7 0.1  1.6 0.7 0.1  1.7 0.7 0.1  1.8 0.7 0.1  1.9 0.7 0.1  2 0.7 0.1  2.1 0.7 0.1  2.2 0.7 0.1  2.3 0.7 0.1  2.4 0.7 0.1  2.5 0.7 0.1  2.6 0.7 0.1  2.7 0.7 0.1  2.8 0.7 0.1  2.9 0.7 0.1  3 0.7 0.1  3.1 0.7 0.1  3.2 0.7 0.1  3.3 0.7 0.1  3.4 0.7 0.1  3.5 0.7 0.1  3.6 0.7 0.1  3.7 0.7 0.1  3.8 0.7 0.1  3.9 0.7 0.1  4 0.7 0.1  0 0.8 0.1  0.1 0.8 0.1  0.2 0.8 0.1  0.3 0.8 0.1  0.4 0.8 0.1  0.5 0.8 0.1  0.6 0.8 0.1  0.7 0.8 0.1  0.8 0.8 0.1  0.9 0.8 0.1  1 0.8 0.1  1.1 0.8 0.1  1.2 0.8 0.1  1.3 0.8 0.1  1.4 0.8 0.1  1.5 0.8 0.1  1.6 0.8 0.1  1.7 0.8 0.1  1.8 0.8 0.1  1.9 0.8 0.1  2 0.8 0.1  2.1 0.8 0.1  2.2 0.8 0.1  2.3 0.8 0.1  2.4 0.8 0.1  2.5 0.8 0.1  2.6 0.8 0.1  2.7 0.8 0.1  2.8 0.8 0.1  2.9 0.8 0.1  3 0.8 0.1  3.1 0.8 0.1  3.2 0.8 0.1  3.3 0.8 0.1  3.4 0.8 0.1  3.5 0.8 0.1  3.6 0.8 0.1  3.7 0.8 0.1  3.8 0.8 0.1  3.9 0.8 0.1  4 0.8 0.1  0 0.9 0.1  0.1 0.9 0.1  0.2 0.9 0.1  0.3 0.9 0.1  0.4 0.9 0.1  0.5 0.9 0.1  0.6 0.9 0.1  0.7 0.9 0.1  0.8 0.9 0.1  0.9 0.9 0.1  1 0.9 0.1  1.1 0.9 0.1  1.2 0.9 0.1  1.3 0.9 0.1  1.4 0.9 0.1  1.5 0.9 0.1  1.6 0.9 0.1  1.7 0.9 0.1  1.8 0.9 0.1  1.9 0.9 0.1  2 0.9 0.1  2.1 0.9 0.1  2.2 0.9 0.1  2.3 0.9 0.1  2.4 0.9 0.1  2.5 0.9 0.1  2.6 0.9 0.1  2.7 0.9 0.1  2.8 0.9 0.1  2.9 0.9 0.1  3 0.9 0.1  3.1 0.9 0.1  3.2 0.9 0.1  3.3 0.9 0.1  3.4 0.9 0.1  3.5 0.9 0.1  3.6 0.9
[...]
<PointData  Scalars="f_48"> 
<DataArray  type="Float64"  Name="f_48"  format="ascii">3.2600225170996180e+02  3.0721444859020812e+02  2.3459889915012343e+02  2.1206203091249199e+02  1.9680999956282056e+02  1.8348630751470296e+02  1.7086295424459891e+02  1.5860173418608596e+02  1.4670467282375722e+02  1.3525595871121831e+02  1.2433178652203071e+02  1.1398034515238933e+02  1.0422279158479769e+02  9.5059831213059269e+01  8.6478515196645091e+01  7.8457660938613458e+01  7.0971731688124990e+01  6.3993440606359343e+01  5.7495412912673750e+01  5.1451193718041843e+01  4.5835819299325408e+01  4.0626106425816069e+01  3.5800765440154194e+01  3.1340407663178226e+01  2.7227493754899474e+01  2.3446254352551890e+01  1.9982605804031948e+01  1.6824081188175274e+01  1.3959800900182380e+01  1.1380515457946114e+01  9.0787829464921010e+00  7.0493182741245697e+00  5.2897341514441916e+00  3.8011804420095738e+00  2.5899026783273937e+00  1.6638738567576472e+00  1.0258907543469071e+00  6.4999657875313732e-01  2.8059166401746471e-01  2.5759251368418418e-01  1.1383304069113959e-01  1.7179300590399833e+02  2.1178969501838222e+02  1.5689915341832037e+02  1.4695043544198691e+02  1.3877706451792650e+02  1.3186438059471777e+02  1.2511000501298489e+02  1.1806892333624359e+02  1.1076162206565229e+02  1.0333386904830324e+02  9.5942313750366296e+01  8.8714211649225021e+01  8.1738754948386514e+01  7.5071496151020696e+01  6.8742376045803738e+01  6.2763480872054885e+01  5.7135274454688549e+01  5.1851153579174166e+01  4.6900579533223606e+01  4.2271131173975157e+01  3.7949794252616009e+01  3.3923734582976515e+01  3.0180734730445334e+01  2.6709417439769272e+01  2.3499335973569700e+01  2.0540979839883974e+01  1.7825720704384278e+01  1.5345704065528555e+01  1.3093674036140781e+01  1.1062697907539150e+01  9.2457360851217523e+00  7.6349617312118720e+00  6.2208121875045359e+00  4.9904267613017064e+00  3.9268003347680320e+00  3.0050134918337745e+00  2.2007412926212795e+00  1.4729365996808788e+00  8.0884733202671788e-01  4.2675008929015062e-01  5.6437620684564760e-01  1.0754749824118939e+02  1.2995667883850345e+02  9.7419948201463527e+01  9.7091817163652095e+01  9.4247762729431813e+01  9.1617961463264308e+01  8.8643462002530129e+01  8.5065441246958301e+01  8.0965775608196523e+01  7.6500988927684844e+01  7.1837930664048855e+01  6.7118164986251458e+01  6.2447886003632682e+01  5.7900281237730219e+01  5.3522057906488122e+01  4.9340450370990254e+01  4.5369230894501690e+01  4.1613332072997565e+01  3.8072165508169590e+01  3.4741883701170927e+01  3.1616851554888751e+01  2.8690556779061467e+01  2.5956136157646050e+01  2.3406644975140164e+01  2.1035156223559223e+01  1.8834745489658307e+01  1.6798395480805638e+01  1.4918839262951566e+01  1.3188352034688583e+01  1.1598496923119427e+01  1.0139833047617600e+01  8.8015957268471947e+00  7.5714399256188099e+00  6.4351017384916478e+00  5.3772679589178622e+00  4.3794539874939691e+00  3.4331105494628007e+00  2.5039508477791821e+00  1.6689555783912107e+00  7.4880588643444512e-01  8.3581072429195480e-01  5.7765255050230323e+01  7.4379119841146377e+01  5.5277128256709751e+01  5.9460930416476785e+01  6.1035684548535201e+01  6.1696337611050481e+01  6.1399658820147877e+01  6.0223187320372162e+01  5.8371974754765738e+01  5.6037742020689656e+01  5.3393938820271096e+01  5.0580489230461843e+01  4.7701914133434379e+01  4.4831817220202367e+01  4.2019258617147131e+01  3.9295057143091505e+01  3.6677126470609721e+01  3.4174611518417322e+01  3.1790905883364488e+01  2.9525749216533619e+01  2.7376623791973671e+01  2.5339645895362789e+01  2.3410109105939362e+01  2.1582797439055756e+01  1.9852152803719836e+01  1.8212355129061244e+01  1.6657354616469558e+01  1.5180882919901338e+01  1.3776462758647623e+01  1.2437432825816973e+01  1.1157006259610535e+01  9.9283859743837830e+00  8.7449729640644840e+00  7.6006001301005561e+00  6.4903567072336221e+00  5.4087181352571969e+00  4.3598626632562709e+00  3.3108892859572832e+00  2.3664753849152249e+00  1.0800718403947092e+00  8.9823770879348686e-01  2.2191081320358563e+01  3.2972809248193876e+01  2.6972532328977490e+01  3.6340436647496759e+01  4.1618668470554439e+01  4.4479789359107997e+01  4.5720405225961919e+01  4.5837397658195677e+01  4.5200090931387770e+01  4.4056553558611476e+01  4.2588035232537877e+01  4.0924756019036217e+01  3.9158040707607107e+01  3.7349984669289945e+01  3.5541186437789939e+01  3.3756925798282360e+01  3.2011910637504961e+01  3.0313784753132200e+01  2.8665623884935734e+01  2.7067648316938143e+01  2.5518357517513657e+01  2.4015256686995205e+01  2.2555306768039557e+01  2.1135194574116539e+01  1.9751491107904819e+01  1.8400744654176563e+01  1.7079540514354711e+01  1.5784550583197445e+01  1.4512592823165896e+01  1.3260722095447976e+01  1.2026380014619210e+01  1.0807636716175308e+01  9.6035510409513769e+00  8.4146491545358852e+00  7.2434522580851182e+00  6.0934871820815095e+00  4.9735991043929788e+00  3.8574869426058700e+00  2.8352004843287157e+00  1.3476659395728134e+00  8.8018075045012811e-01  1.8783302198171302e+01  2.6588584775489846e+01  3.2183722103366428e+01  4.0767337546647667e+01  4.5090004623315750e+01  4.6936090899046953e+01  4.7300776031023567e+01  4.6748748928319806e+01  4.5648778073375183e+01  4.4220927657751140e+01  4.2606708611502512e+01  4.0897737795798335e+01  3.9152936153636091e+01  3.7409243302396511e+01  3.5688710831943411e+01  3.4003455992645172e+01  3.2359130595982641e+01  3.0757319096985608e+01  2.9197156948052292e+01  2.7676390600022415e+01  2.6192049409172558e+01  2.4740856874264217e+01  2.3319473031416766e+01  2.1924631695419169e+01  2.0553215375528954e+01  1.9202296380177554e+01  1.7869163904033691e+01  1.6551352924563371e+01  1.5246691026306435e+01  1.3953383155698441e+01  1.2670162746481227e+01  1.1396540922470411e+01  1.0133196340552528e+01  8.8825067747163082e+00  7.6489922744684016e+00  6.4395569803726769e+00  5.2626280042915869e+00  4.1054612347920116e+00  3.0215956879377357e+00  1.5029422537958150e+00  8.8748407894166959e-01  4.7104592718969649e+01  5.2157556427624542e+01  5.5507428115145593e+01  6.0395880231485705e+01  6.2111114525834125e+01  6.1940181941999981e+01  6.0641153213695063e+01  5.8688958780675790e+01  5.6389263071881565e+01  5.3917280238009837e+01  5.1379022429454459e+01  4.8839505095153910e+01  4.6338520597039292e+01  4.3899702659896242e+01  4.1536083653327040e+01  3.9253765908606169e+01  3.7054403984269165e+01  3.4936881624283650e+01  3.2898423337272092e+01  3.0935311272912120e+01  2.9043334133323690e+01  2.7218060723426639e+01  2.5455003301583638e+01  2.3749714603209679e+01  2.2097846907434267e+01  2.0495191081388214e+01  1.8937707282176181e+01  1.7421556145782290e+01  1.5943139325152643e+01  1.4499160929258304e+01  1.3086727295207579e+01  1.1703506634567471e+01  1.0347997496579765e+01  9.0198851529899056e+00  7.7205996733019759e+00  6.4542203664166600e+00  5.2252370882119425e+00  4.0378414830150815e+00  2.9112988097360097e+00  1.5204529969391549e+00  9.5929553174410254e-01  7.0944770509925036e+01  8.0281331142281275e+01  7.9316507015245733e+01  8.1881571789368550e+01  8.1602725586082627e+01  7.9866178170292613e+01  7.7248103382368015e+01  7.4135070510735133e+01  7.0769489673766273e+01  6.7291179254888178e+01  6.3786477275261518e+01  6.0310370753291870e+01  5.6898510071441223e+01  5.3573829059688507e+01  5.0350545861340663e+01  4.7236868004130486e+01  4.4236905908397951e+01  4.1352034457284518e+01  3.8581842469534749e+01  3.5924774614251568e+01  3.3378550705328038e+01  3.0940429838199801e+01  2.8607370203359714e+01  2.6376120757176992e+01  2.4243269189943177e+01  2.2205262000677820e+01  2.0258406654968304e+01  1.8398862276722340e+01  1.6622623686626614e+01  1.4925503763661707e+01  1.3303121156466890e+01  1.1750905429718925e+01  1.0264149468517280e+01  8.8381025192538214e+00  7.4684570264593795e+00  6.1515826489164773e+00  4.8853079129351134e+00  3.6809667033696982e+00  2.5340029790371452e+00  1.3658145697568131e+00  1.0119405562291766e+00  8.9979393978985854e+01  1.0787396982248400e+02  1.0227046847055291e+02  1.0249289536133767e+02  1.0041291658430795e+02  9.7424632278290261e+01  9.3822174343399084e+01  8.9852497196299339e+01  8.5671386262691072e+01  8.1382409738877641e+01  7.7058825454326950e+01  7.2753561092550783e+01  6.8505082344689924e+01  6.4341033783894446e+01  6.0280869957870159e+01  5.6337937348064962e+01  5.2521135043654084e+01  4.8836207903713600e+01  4.5286717467837072e+01  4.1874744232250904e+01  3.8601378129738954e+01  3.5467049633132859e+01  3.2471744910405164e+01  2.9615138042891317e+01  2.6896663484293221e+01  2.4315543513382174e+01  2.1870778442866403e+01  1.9561101380361475e+01  1.7384893832344201e+01  1.5340052950727959e+01  1.3423795801043072e+01  1.1632383354559092e+01  9.9607490694562291e+00  8.4020491350186255e+00  6.9473572144744891e+00  5.5850021283590783e+00  4.3047763577680467e+00  3.1005994722803432e+00  1.9579954484764761e+00  1.0406069739563411e+00  9.4677901056945657e-01  1.1873643419015278e+02  1.3869818597980088e+02  1.2407545727183535e+02  1.2146391845578597e+02  1.1789264830974989e+02  1.1392843715155706e+02  1.0965376312485657e+02  1.0508099694465925e+02  1.0029149221776581e+02  9.5363175819327111e+01  9.0364888711361161e+01  8.5353370612543699e+01  8.0373281714479788e+01  7.5458796693586038e+01  7.0635561677156886e+01  6.5922598483705954e+01  6.1333960803686907e+01  5.6880082220389113e+01  5.2568822582264026e+01  4.8406250351030337e+01  4.4397209562533718e+01  4.0545719525192823e+01  3.6855249210003748e+01  3.3328900027419486e+01  2.9969522356629277e+01  2.6779783723766261e+01  2.3762200152900316e+01  2.0919136756011465e+01  1.8252778655550824e+01  1.5765068227290939e+01  1.3457598675552715e+01  1.1331445718485071e+01  9.3869067348323778e+00  7.6231133595909757e+00  6.0373959306986498e+00  4.6243540694231378e+00  3.3766801076265942e+00  2.2734120322615965e+00  1.3174388103933599e+00  6.3965120869997349e-01  5.8640983499602251e-01  1.2159980095283083e+02  1.6161839246736238e+02  1.3614701185954758e+02  1.3586205824640842e+02  1.3160721350654495e+02  1.2762551714591318e+02  1.2323488496293822e+02  1.1843421075954983e+02  1.1332643006207405e+02  1.0800535241570950e+02  1.0255677598333915e+02  9.7050285965474359e+01  9.1540151388256220e+01  8.6067931276957765e+01  8.0665197685613890e+01  7.5355950281389127e+01  7.0158588322031733e+01  6.5087459446340560e+01  6.0154041005298247e+01  5.5367817647659948e+01  5.0736916602169003e+01  4.6268555474311796e+01  4.1969348946146710e+01  3.7845511834316170e+01  3.3902987464401726e+01  3.0147522856634215e+01  2.6584706105465067e+01  2.3219976733396546e+01  2.0058616890999787e+01  1.7105730522099886e+01  1.4366220086492428e+01  1.1844778043136390e+01  9.5459288382238014e+00  7.4741874371916230e+00  5.6344327732874975e+00  4.0329947968814368e+00  2.6789132162746401e+00  1.5848320341186326e+00  8.1297822339925196e-01  3.4301173361248638e-01  2.4272405781543824e-01  2.5243044666438641e+02  3.0348494149032155e+02  2.5089805360707382e+02  2.3147958030608919e+02  2.1271250159822065e+02  1.9532865097172760e+02  1.7928937797873945e+02  1.6443090792181007e+02  1.5068587525551294e+02  1.3797300926301449e+02  1.2620419401202622e+02  1.1529488313075851e+02  1.0516885988766448e+02  9.5759555234871044e+01  8.7009442033266509e+01  7.8868707214571216e+01  7.1293866723257722e+01  6.4246589054524122e+01  5.7692785122874788e+01  5.1601934028899890e+01  4.5946589084370231e+01  4.0702011024704504e+01  3.5845887055830886e+01  3.1358106932692056e+01  2.7220577800227108e+01  2.3417067811750105e+01  1.9933075571333919e+01  1.6755729942837707e+01  1.3873735759963322e+01  1.1277397375799051e+01  8.9587897820328077e+00  6.9121696785375040e+00  5.1349041224133840e+00  3.6288917258841757e+00  2.4035982560082227e+00  1.4774270035910830e+00  8.7428908783345993e-01  5.6023082140072866e-01  3.2892323083265818e-01  3.1638260267411283e-01  1.2752113091199963e-01  9.6269895212730617e+01  2.0630505243201057e+02  1.7785278131547983e+02  1.6782718275086739e+02  1.5361369874260194e+02  1.4245121199203811e+02  1.3232891419880912e+02  1.2283940391914099e+02  1.1384560196590721e+02  1.0529455280792129e+02  9.7171924943023285e+01  8.9473935217302142e+01  8.2196531715579411e+01  7.5332330364354590e+01  6.8870450610900221e+01  6.2797361899797743e+01  5.7097917396025792e+01  5.1756257567661414e+01  4.6756496807870931e+01  4.2083200193026897e+01  3.7721689384431713e+01  3.3658221474226600e+01  2.9880078773428639e+01  2.6375598720945067e+01  2.3134164352794979e+01  2.0146167975242900e+01  1.7402953535880567e+01  1.4896735681957917e+01  1.2620483879400313e+01  1.0567746079469206e+01  8.7323655993133151e+00  7.1080126667511472e+00  5.6874437010101087e+00  4.4612831339840691e+00  3.4167292232719619e+00  2.5349607292315892e+00  1.7935059721252171e+00  1.1602680952230300e+00  6.4057702564170216e-01  3.7694107463493282e-01  4.4660116947174822e-01  6.6693096537266257e+01  1.2237299684137655e+02  1.1598537874484660e+02  1.1428000217810288e+02  1.0555728101761092e+02  9.9461129852515356e+01  9.3669891680495454e+01  8.8098374547023127e+01  8.2642091012540959e+01  7.7280428814615675e+01  7.2038747635810594e+01  6.6951932028073955e+01  6.2050900058233886e+01  5.7358125677193286e+01  5.2887382968373153e+01  4.8645203646268257e+01  4.4632738172014363e+01  4.0847459297487099e+01  3.7284518930416517e+01  3.3937740513087491e+01  3.0800297700939058e+01  2.7865147924958929e+01  2.5125284595089546e+01  2.2573858683069393e+01  2.0204206057140539e+01  1.8009804048074621e+01  1.5984170108643138e+01  1.4120706995502990e+01  1.2412492372026545e+01  1.0852006100003541e+01  9.4307875061703612e+00  8.1390164552256810e+00  6.9650523388819039e+00  5.8949032936856316e+00  4.9122212786215842e+00  3.9974413044320123e+00  3.1331955864138439e+00  2.2956849661601417e+00  1.5010782782518663e+00  7.6060194642295154e-01  6.8560742925824980e-01  3.5712671339337454e+01  7.2485416625248078e+01  6.8923492988270695e+01  7.2252097644632670e+01  6.9097540424352403e+01  6.6878250516945712e+01  6.4254307956546882e+01  6.1499218759047793e+01  5.8605548045137972e+01  5.5603290054879835e+01  5.2544873628532187e+01  4.9482185105085939e+01  4.6459540858189968e+01  4.3510792636356726e+01  4.0659582047151687e+01  3.7920982435791181e+01  3.5303475190383388e+01  3.2810770475602098e+01  3.0443284188326871e+01  2.8199242309094831e+01  2.6075456245523700e+01  2.4067836756042649e+01  2.2171714066349971e+01  2.0382021795677453e+01  1.8693389722984676e+01  1.7100178804400961e+01  1.5596482629847403e+01  1.4176113066502753e+01  1.2832584214309680e+01  1.1559108030473839e+01  1.0348616702217148e+01  9.1938313750976288e+00  8.0874007581409568e+00  7.0220969129357425e+00  5.9912509990222889e+00  4.9882194468643588e+00  4.0098648347378338e+00  3.0414999302030505e+00  2.1103732651392173e+00  1.0957801887881935e+00  7.6107001356739379e-01  1.7162510985292844e+01  3.7966873586711472e+01  3.9039402098281101e+01  4.5954604093781256e+01  4.6741954223516821e+01  4.7020467650246744e+01  4.6400092162077328e+01  4.5343601944580577e+01  4.3978334926796542e+01  4.2400616006756920e+01  4.0688948414074545e+01  3.8903687659711252e+01  3.7090637000934990e+01  3.5282715512119410e+01  3.3502245946308044e+01  3.1763340913543956e+01  3.0074062006737446e+01  2.8438207378594388e+01  2.6856691397339358e+01  2.5328551717675850e+01  2.3851650720264249e+01  2.2423144404449165e+01  2.1039784620696430e+01  1.9698108056074041e+01  1.8394552407991853e+01  1.7125529110667319e+01  1.5887473807900360e+01  1.4676890772657281e+01  1.3490405716589395e+01  1.2324842612946849e+01  1.1177343955508080e+01  1.0045556691110045e+01  8.9278991341845710e+00  7.8238930538100604e+00  6.7344510893038700e+00  5.6613872168854211e+00  4.6075639175358978e+00  3.5630106520616724e+00  2.5405342834193463e+00  1.3493771672519537e+00  6.9745113212134580e-01  2.3519692659767760e+01  2.9914631511976591e+01  3.7584519015932443e+01  4.4963544211169001e+01  4.6327733720089178e+01  4.6611602637123852e+01  4.5890985141094269e+01  4.4700245204403885e+01  4.3244402362658803e+01  4.1642362889915923e+01  3.9968894632252677e+01  3.8271307722964487e+01  3.6580305634567402e+01  3.4915021392552660e+01  3.3286515196174747e+01  3.1700285694863862e+01  3.0158110724942713e+01  2.8659383808004442e+01  2.7202054108779215e+01  2.5783263672327760e+01  2.4399763028911558e+01  2.3048171731233296e+01  2.1725135233286245e+01  2.0427415665338149e+01  1.9151942819887037e+01  1.7895843521662247e+01  1.6656462492951540e+01  1.5431385662351058e+01  1.4218477466173521e+01  1.3015946805973307e+01  1.1822461915202803e+01  1.0637337697499474e+01  9.4608207639788962e+00  8.2944587784731834e+00  7.1414184898979789e+00  6.0064223716164618e+00  4.8941019699893431e+00  3.8006279821869784e+00  2.7215585043829260e+00  1.4836211963660573e+00  6.4259494219251267e-01  4.3518009612333806e+01  4.7657840479407859e+01  5.8430562731154573e+01  6.2019263394029345e+01  6.1891341461167890e+01  6.0678148715420228e+01  5.8658339081045852e+01  5.6296841122670557e+01  5.3790937810842358e+01  5.1243417241804629e+01  4.8711831716193650e+01  4.6228760126842758e+01  4.3813196435962233e+01  4.1475548545335243e+01  3.9220614605406709e+01  3.7049496838692292e+01  3.4960913657437892e+01  3.2952110767317038e+01  3.1019478602465387e+01  2.9158956342378595e+01  2.7366286142485109e+01  2.5637167158513854e+01  2.3967345937187435e+01  2.2352668582095184e+01  2.0789111473316904e+01  1.9272801333576886e+01  1.7800031853162217e+01  1.6367282589233845e+01  1.4971246207154742e+01  1.3608872256769244e+01  1.2277439709364277e+01  1.0974674794838743e+01  9.6989422472499331e+00  8.4495103484068554e+00  7.2269515753798368e+00  6.0334861743972290e+00  4.8721584694682196e+00  3.7463013235170308e+00  2.6453074393333589e+00  1.4864884377656220e+00  6.9555297602360067e-01  6.0396721700985651e+01  7.1632460344680254e+01  8.1604317997381798e+01  8.2771166626453223e+01  8.1208792116957596e+01  7.8636191447883505e+01  7.5443841391613816e+01  7.2005691020756174e+01  6.8480881487258799e+01  6.4951396715378493e+01  6.1463837050538693e+01  5.8046199475581567e+01  5.4716644655499444e+01  5.1486896689082208e+01  4.8364124717465920e+01  4.5352195511232736e+01  4.2452620024490258e+01  3.9665282067667810e+01  3.6988978922910057e+01  3.4421803840710538e+01  3.1961403708478510e+01  2.9605144319396093e+01  2.7350210737791791e+01  2.5193663733205682e+01  2.3132467028059207e+01  2.1163495060732505e+01  1.9283527311070173e+01  1.7489232836888469e+01  1.5777147323040165e+01  1.4143644605839896e+01  1.2584905505327368e+01  1.1096890233458558e+01  9.6753304576822572e+00  8.3157622097137978e+00  7.0137709079692776e+00  5.7652248906550740e+00  4.5679133845077180e+00  3.4256342996876010e+00  2.3345610532056167e+00  1.3355996772966061e+00  8.0152134147323184e-01  7.6667662658801603e+01  9.6189249162856001e+01  1.0423500375512855e+02  1.0336263481329132e+02  1.0018852789065193e+02  9.6468059012670295e+01  9.2369697188336630e+01  8.8123537378909631e+01  8.3811281837105895e+01  7.9486257196788657e+01  7.5186094320414782e+01  7.0939660311492034e+01  6.6769805763017160e+01  6.2694192939654656e+01  5.8726018190495566e+01  5.4874786237458224e+01  5.1147103645403298e+01  4.7547406571120476e+01  4.4078567514145384e+01  4.0742366555185882e+01  3.7539837478749178e+01  3.4471510149621537e+01  3.1537572174367757e+01  2.8737969838616820e+01  2.6072463565018410e+01  2.3540648214864564e+01  2.1141944010661309e+01  1.8875559660470607e+01  1.6740425088429966e+01  1.4735086597512563e+01  1.2857552097934303e+01  1.1105069404846143e+01  9.4738191751412444e+00  7.9585264216577505e+00  6.5520785659530105e+00  5.2452231820652271e+00  4.0289618101246907e+00  2.8952397315503524e+00  1.8514783904180401e+00  1.0398960151779484e+00  8.2008317843764655e-01  1.0069329305135864e+02  1.2266608525484249e+02  1.2585108747150126e+02  1.2273995663455166e+02  1.1796849601300107e+02  1.1337753895914513e+02  1.0868261982277002e+02  1.0388361889587402e+02  9.8994109687977016e+01  9.4044793472488763e