<?xml version="1.0"?>
<VTKFile type="UnstructuredGrid"  version="0.1"  >
<UnstructuredGrid>
<Piece  NumberOfPoints="4961" NumberOfCells="24000">
<Points>
<DataArray  type="Float64"  NumberOfComponents="3"  format="ascii">0 0 0  0.1 0 0  0.2 0 0  0.3 0 0  0.4 0 0  0.5 0 0  0.6 0 0  0.7 0 0  0.8 0 0  0.9 0 0  1 0 0  1.1 0 0  1.2 0 0  1.3 0 0  1.4 0 0  1.5 0 0  1.6 0 0  1.7 0 0  1.8 0 0  1.9 0 0  2 0 0  2.1 0 0  2.2 0 0  2.3 0 0  2.4 0 0  2.5 0 0  2.6 0 0  2.7 0 0  2.8 0 0  2.9 0 0  3 0 0  3.1 0 0  3.2 0 0  3.3 0 0  3.4 0 0  3.5 0 0  3.6 0 0  3.7 0 0  3.8 0 0  3.9 0 0  4 0 0  0 0.1 0  0.1 0.1 0  0.2 0.1 0  0.3 0.1 0  0.4 0.1 0  0.5 0.1 0  0.6 0.1 0  0.7 0.1 0  0.8 0.1 0  0.9 0.1 0  1 0.1 0  1.1 0.1 0  1.2 0.1 0  1.3 0.1 0  1.4 0.1 0  1.5 0.1 0  1.6 0.1 0  1.7 0.1 0  1.8 0.1 0  1.9 0.1 0  2 0.1 0  2.1 0.1 0  2.2 0.1 0  2.3 0.1 0  2.4 0.1 0  2.5 0.1 0  2.6 0.1 0  2.7 0.1 0  2.8 0.1 0  2.9 0.1 0  3 0.1 0  3.1 0.1 0  3.2 0.1 0  3.3 0.1 0  3.4 0.1 0  3.5 0.1 0  3.6 0.1 0  3.7 0.1 0  3.8 0.1 0  3.9 0.1 0  4 0.1 0  0 0.2 0  0.1 0.2 0  0.2 0.2 0  0.3 0.2 0  0.4 0.2 0  0.5 0.2 0  0.6 0.2 0  0.7 0.2 0  0.8 0.2 0  0.9 0.2 0  1 0.2 0  1.1 0.2 0  1.2 0.2 0  1.3 0.2 0  1.4 0.2 0  1.5 0.2 0  1.6 0.2 0  1.7 0.2 0  1.8 0.2 0  1.9 0.2 0  2 0.2 0  2.1 0.2 0  2.2 0.2 0  2.3 0.2 0  2.4 0.2 0  2.5 0.2 0  2.6 0.2 0  2.7 0.2 0  2.8 0.2 0  2.9 0.2 0  3 0.2 0  3.1 0.2 0  3.2 0.2 0  3.3 0.2 0  3.4 0.2 0  3.5 0.2 0  3.6 0.2 0  3.7 0.2 0  3.8 0.2 0  3.9 0.2 0  4 0.2 0  0 0.3 0  0.1 0.3 0  0.2 0.3 0  0.3 0.3 0  0.4 0.3 0  0.5 0.3 0  0.6 0.3 0  0.7 0.3 0  0.8 0.3 0  0.9 0.3 0  1 0.3 0  1.1 0.3 0  1.2 0.3 0  1.3 0.3 0  1.4 0.3 0  1.5 0.3 0  1.6 0.3 0  1.7 0.3 0  1.8 0.3 0  1.9 0.3 0  2 0.3 0  2.1 0.3 0  2.2 0.3 0  2.3 0.3 0  2.4 0.3 0  2.5 0.3 0  2.6 0.3 0  2.7 0.3 0  2.8 0.3 0  2.9 0.3 0  3 0.3 0  3.1 0.3 0  3.2 0.3 0  3.3 0.3 0  3.4 0.3 0  3.5 0.3 0  3.6 0.3 0  3.7 0.3 0  3.8 0.3 0  3.9 0.3 0  4 0.3 0  0 0.4 0  0.1 0.4 0  0.2 0.4 0  0.3 0.4 0  0.4 0.4 0  0.5 0.4 0  0.6 0.4 0  0.7 0.4 0  0.8 0.4 0  0.9 0.4 0  1 0.4 0  1.1 0.4 0  1.2 0.4 0  1.3 0.4 0  1.4 0.4 0  1.5 0.4 0  1.6 0.4 0  1.7 0.4 0  1.8 0.4 0  1.9 0.4 0  2 0.4 0  2.1 0.4 0  2.2 0.4 0  2.3 0.4 0  2.4 0.4 0  2.5 0.4 0  2.6 0.4 0  2.7 0.4 0  2.8 0.4 0  2.9 0.4 0  3 0.4 0  3.1 0.4 0  3.2 0.4 0  3.3 0.4 0  3.4 0.4 0  3.5 0.4 0  3.6 0.4 0  3.7 0.4 0  3.8 0.4 0  3.9 0.4 0  4 0.4 0  0 0.5 0  0.1 0.5 0  0.2 0.5 0  0.3 0.5 0  0.4 0.5 0  0.5 0.5 0  0.6 0.5 0  0.7 0.5 0  0.8 0.5 0  0.9 0.5 0  1 0.5 0  1.1 0.5 0  1.2 0.5 0  1.3 0.5 0  1.4 0.5 0  1.5 0.5 0  1.6 0.5 0  1.7 0.5 0  1.8 0.5 0  1.9 0.5 0  2 0.5 0  2.1 0.5 0  2.2 0.5 0  2.3 0.5 0  2.4 0.5 0  2.5 0.5 0  2.6 0.5 0  2.7 0.5 0  2.8 0.5 0  2.9 0.5 0  3 0.5 0  3.1 0.5 0  3.2 0.5 0  3.3 0.5 0  3.4 0.5 0  3.5 0.5 0  3.6 0.5 0  3.7 0.5 0  3.8 0.5 0  3.9 0.5 0  4 0.5 0  0 0.6 0  0.1 0.6 0  0.2 0.6 0  0.3 0.6 0  0.4 0.6 0  0.5 0.6 0  0.6 0.6 0  0.7 0.6 0  0.8 0.6 0  0.9 0.6 0  1 0.6 0  1.1 0.6 0  1.2 0.6 0  1.3 0.6 0  1.4 0.6 0  1.5 0.6 0  1.6 0.6 0  1.7 0.6 0  1.8 0.6 0  1.9 0.6 0  2 0.6 0  2.1 0.6 0  2.2 0.6 0  2.3 0.6 0  2.4 0.6 0  2.5 0.6 0  2.6 0.6 0  2.7 0.6 0  2.8 0.6 0  2.9 0.6 0  3 0.6 0  3.1 0.6 0  3.2 0.6 0  3.3 0.6 0  3.4 0.6 0  3.5 0.6 0  3.6 0.6 0  3.7 0.6 0  3.8 0.6 0  3.9 0.6 0  4 0.6 0  0 0.7 0  0.1 0.7 0  0.2 0.7 0  0.3 0.7 0  0.4 0.7 0  0.5 0.7 0  0.6 0.7 0  0.7 0.7 0  0.8 0.7 0  0.9 0.7 0  1 0.7 0  1.1 0.7 0  1.2 0.7 0  1.3 0.7 0  1.4 0.7 0  1.5 0.7 0  1.6 0.7 0  1.7 0.7 0  1.8 0.7 0  1.9 0.7 0  2 0.7 0  2.1 0.7 0  2.2 0.7 0  2.3 0.7 0  2.4 0.7 0  2.5 0.7 0  2.6 0.7 0  2.7 0.7 0  2.8 0.7 0  2.9 0.7 0  3 0.7 0  3.1 0.7 0  3.2 0.7 0  3.3 0.7 0  3.4 0.7 0  3.5 0.7 0  3.6 0.7 0  3.7 0.7 0  3.8 0.7 0  3.9 0.7 0  4 0.7 0  0 0.8 0  0.1 0.8 0  0.2 0.8 0  0.3 0.8 0  0.4 0.8 0  0.5 0.8 0  0.6 0.8 0  0.7 0.8 0  0.8 0.8 0  0.9 0.8 0  1 0.8 0  1.1 0.8 0  1.2 0.8 0  1.3 0.8 0  1.4 0.8 0  1.5 0.8 0  1.6 0.8 0  1.7 0.8 0  1.8 0.8 0  1.9 0.8 0  2 0.8 0  2.1 0.8 0  2.2 0.8 0  2.3 0.8 0  2.4 0.8 0  2.5 0.8 0  2.6 0.8 0  2.7 0.8 0  2.8 0.8 0  2.9 0.8 0  3 0.8 0  3.1 0.8 0  3.2 0.8 0  3.3 0.8 0  3.4 0.8 0  3.5 0.8 0  3.6 0.8 0  3.7 0.8 0  3.8 0.8 0  3.9 0.8 0  4 0.8 0  0 0.9 0  0.1 0.9 0  0.2 0.9 0  0.3 0.9 0  0.4 0.9 0  0.5 0.9 0  0.6 0.9 0  0.7 0.9 0  0.8 0.9 0  0.9 0.9 0  1 0.9 0  1.1 0.9 0  1.2 0.9 0  1.3 0.9 0  1.4 0.9 0  1.5 0.9 0  1.6 0.9 0  1.7 0.9 0  1.8 0.9 0  1.9 0.9 0  2 0.9 0  2.1 0.9 0  2.2 0.9 0  2.3 0.9 0  2.4 0.9 0  2.5 0.9 0  2.6 0.9 0  2.7 0.9 0  2.8 0.9 0  2.9 0.9 0  3 0.9 0  3.1 0.9 0  3.2 0.9 0  3.3 0.9 0  3.4 0.9 0  3.5 0.9 0  3.6 0.9 0  3.7 0.9 0  3.8 0.9 0  3.9 0.9 0  4 0.9 0  0 1 0  0.1 1 0  0.2 1 0  0.3 1 0  0.4 1 0  0.5 1 0  0.6 1 0  0.7 1 0  0.8 1 0  0.9 1 0  1 1 0  1.1 1 0  1.2 1 0  1.3 1 0  1.4 1 0  1.5 1 0  1.6 1 0  1.7 1 0  1.8 1 0  1.9 1 0  2 1 0  2.1 1 0  2.2 1 0  2.3 1 0  2.4 1 0  2.5 1 0  2.6 1 0  2.7 1 0  2.8 1 0  2.9 1 0  3 1 0  3.1 1 0  3.2 1 0  3.3 1 0  3.4 1 0  3.5 1 0  3.6 1 0  3.7 1 0  3.8 1 0  3.9 1 0  4 1 0  0 0 0.1  0.1 0 0.1  0.2 0 0.1  0.3 0 0.1  0.4 0 0.1  0.5 0 0.1  0.6 0 0.1  0.7 0 0.1  0.8 0 0.1  0.9 0 0.1  1 0 0.1  1.1 0 0.1  1.2 0 0.1  1.3 0 0.1  1.4 0 0.1  1.5 0 0.1  1.6 0 0.1  1.7 0 0.1  1.8 0 0.1  1.9 0 0.1  2 0 0.1  2.1 0 0.1  2.2 0 0.1  2.3 0 0.1  2.4 0 0.1  2.5 0 0.1  2.6 0 0.1  2.7 0 0.1  2.8 0 0.1  2.9 0 0.1  3 0 0.1  3.1 0 0.1  3.2 0 0.1  3.3 0 0.1  3.4 0 0.1  3.5 0 0.1  3.6 0 0.1  3.7 0 0.1  3.8 0 0.1  3.9 0 0.1  4 0 0.1  0 0.1 0.1  0.1 0.1 0.1  0.2 0.1 0.1  0.3 0.1 0.1  0.4 0.1 0.1  0.5 0.1 0.1  0.6 0.1 0.1  0.7 0.1 0.1  0.8 0.1 0.1  0.9 0.1 0.1  1 0.1 0.1  1.1 0.1 0.1  1.2 0.1 0.1  1.3 0.1 0.1  1.4 0.1 0.1  1.5 0.1 0.1  1.6 0.1 0.1  1.7 0.1 0.1  1.8 0.1 0.1  1.9 0.1 0.1  2 0.1 0.1  2.1 0.1 0.1  2.2 0.1 0.1  2.3 0.1 0.1  2.4 0.1 0.1  2.5 0.1 0.1  2.6 0.1 0.1  2.7 0.1 0.1  2.8 0.1 0.1  2.9 0.1 0.1  3 0.1 0.1  3.1 0.1 0.1  3.2 0.1 0.1  3.3 0.1 0.1  3.4 0.1 0.1  3.5 0.1 0.1  3.6 0.1 0.1  3.7 0.1 0.1  3.8 0.1 0.1  3.9 0.1 0.1  4 0.1 0.1  0 0.2 0.1  0.1 0.2 0.1  0.2 0.2 0.1  0.3 0.2 0.1  0.4 0.2 0.1  0.5 0.2 0.1  0.6 0.2 0.1  0.7 0.2 0.1  0.8 0.2 0.1  0.9 0.2 0.1  1 0.2 0.1  1.1 0.2 0.1  1.2 0.2 0.1  1.3 0.2 0.1  1.4 0.2 0.1  1.5 0.2 0.1  1.6 0.2 0.1  1.7 0.2 0.1  1.8 0.2 0.1  1.9 0.2 0.1  2 0.2 0.1  2.1 0.2 0.1  2.2 0.2 0.1  2.3 0.2 0.1  2.4 0.2 0.1  2.5 0.2 0.1  2.6 0.2 0.1  2.7 0.2 0.1  2.8 0.2 0.1  2.9 0.2 0.1  3 0.2 0.1  3.1 0.2 0.1  3.2 0.2 0.1  3.3 0.2 0.1  3.4 0.2 0.1  3.5 0.2 0.1  3.6 0.2 0.1  3.7 0.2 0.1  3.8 0.2 0.1  3.9 0.2 0.1  4 0.2 0.1  0 0.3 0.1  0.1 0.3 0.1  0.2 0.3 0.1  0.3 0.3 0.1  0.4 0.3 0.1  0.5 0.3 0.1  0.6 0.3 0.1  0.7 0.3 0.1  0.8 0.3 0.1  0.9 0.3 0.1  1 0.3 0.1  1.1 0.3 0.1  1.2 0.3 0.1  1.3 0.3 0.1  1.4 0.3 0.1  1.5 0.3 0.1  1.6 0.3 0.1  1.7 0.3 0.1  1.8 0.3 0.1  1.9 0.3 0.1  2 0.3 0.1  2.1 0.3 0.1  2.2 0.3 0.1  2.3 0.3 0.1  2.4 0.3 0.1  2.5 0.3 0.1  2.6 0.3 0.1  2.7 0.3 0.1  2.8 0.3 0.1  2.9 0.3 0.1  3 0.3 0.1  3.1 0.3 0.1  3.2 0.3 0.1  3.3 0.3 0.1  3.4 0.3 0.1  3.5 0.3 0.1  3.6 0.3 0.1  3.7 0.3 0.1  3.8 0.3 0.1  3.9 0.3 0.1  4 0.3 0.1  0 0.4 0.1  0.1 0.4 0.1  0.2 0.4 0.1  0.3 0.4 0.1  0.4 0.4 0.1  0.5 0.4 0.1  0.6 0.4 0.1  0.7 0.4 0.1  0.8 0.4 0.1  0.9 0.4 0.1  1 0.4 0.1  1.1 0.4 0.1  1.2 0.4 0.1  1.3 0.4 0.1  1.4 0.4 0.1  1.5 0.4 0.1  1.6 0.4 0.1  1.7 0.4 0.1  1.8 0.4 0.1  1.9 0.4 0.1  2 0.4 0.1  2.1 0.4 0.1  2.2 0.4 0.1  2.3 0.4 0.1  2.4 0.4 0.1  2.5 0.4 0.1  2.6 0.4 0.1  2.7 0.4 0.1  2.8 0.4 0.1  2.9 0.4 0.1  3 0.4 0.1  3.1 0.4 0.1  3.2 0.4 0.1  3.3 0.4 0.1  3.4 0.4 0.1  3.5 0.4 0.1  3.6 0.4 0.1  3.7 0.4 0.1  3.8 0.4 0.1  3.9 0.4 0.1  4 0.4 0.1  0 0.5 0.1  0.1 0.5 0.1  0.2 0.5 0.1  0.3 0.5 0.1  0.4 0.5 0.1  0.5 0.5 0.1  0.6 0.5 0.1  0.7 0.5 0.1  0.8 0.5 0.1  0.9 0.5 0.1  1 0.5 0.1  1.1 0.5 0.1  1.2 0.5 0.1  1.3 0.5 0.1  1.4 0.5 0.1  1.5 0.5 0.1  1.6 0.5 0.1  1.7 0.5 0.1  1.8 0.5 0.1  1.9 0.5 0.1  2 0.5 0.1  2.1 0.5 0.1  2.2 0.5 0.1  2.3 0.5 0.1  2.4 0.5 0.1  2.5 0.5 0.1  2.6 0.5 0.1  2.7 0.5 0.1  2.8 0.5 0.1  2.9 0.5 0.1  3 0.5 0.1  3.1 0.5 0.1  3.2 0.5 0.1  3.3 0.5 0.1  3.4 0.5 0.1  3.5 0.5 0.1  3.6 0.5 0.1  3.7 0.5 0.1  3.8 0.5 0.1  3.9 0.5 0.1  4 0.5 0.1  0 0.6 0.1  0.1 0.6 0.1  0.2 0.6 0.1  0.3 0.6 0.1  0.4 0.6 0.1  0.5 0.6 0.1  0.6 0.6 0.1  0.7 0.6 0.1  0.8 0.6 0.1  0.9 0.6 0.1  1 0.6 0.1  1.1 0.6 0.1  1.2 0.6 0.1  1.3 0.6 0.1  1.4 0.6 0.1  1.5 0.6 0.1  1.6 0.6 0.1  1.7 0.6 0.1  1.8 0.6 0.1  1.9 0.6 0.1  2 0.6 0.1  2.1 0.6 0.1  2.2 0.6 0.1  2.3 0.6 0.1  2.4 0.6 0.1  2.5 0.6 0.1  2.6 0.6 0.1  2.7 0.6 0.1  2.8 0.6 0.1  2.9 0.6 0.1  3 0.6 0.1  3.1 0.6 0.1  3.2 0.6 0.1  3.3 0.6 0.1  3.4 0.6 0.1  3.5 0.6 0.1  3.6 0.6 0.1  3.7 0.6 0.1  3.8 0.6 0.1  3.9 0.6 0.1  4 0.6 0.1  0 0.7 0.1  0.1 0.7 0.1  0.2 0.7 0.1  0.3 0.7 0.1  0.4 0.7 0.1  0.5 0.7 0.1  0.6 0.7 0.1  0.7 0.7 0.1  0.8 0.7 0.1  0.9 0.7 0.1  1 0.7 0.1  1.1 0.7 0.1  1.2 0.7 0.1  1.3 0.7 0.1  1.4 0.7 0.1  1.5 0.7 0.1  1.6 0.7 0.1  1.7 0.7 0.1  1.8 0.7 0.1  1.9 0.7 0.1  2 0.7 0.1  2.1 0.7 0.1  2.2 0.7 0.1  2.3 0.7 0.1  2.4 0.7 0.1  2.5 0.7 0.1  2.6 0.7 0.1  2.7 0.7 0.1  2.8 0.7 0.1  2.9 0.7 0.1  3 0.7 0.1  3.1 0.7 0.1  3.2 0.7 0.1  3.3 0.7 0.1  3.4 0.7 0.1  3.5 0.7 0.1  3.6 0.7 0.1  3.7 0.7 0.1  3.8 0.7 0.1  3.9 0.7 0.1  4 0.7 0.1  0 0.8 0.1  0.1 0.8 0.1  0.2 0.8 0.1  0.3 0.8 0.1  0.4 0.8 0.1  0.5 0.8 0.1  0.6 0.8 0.1  0.7 0.8 0.1  0.8 0.8 0.1  0.9 0.8 0.1  1 0.8 0.1  1.1 0.8 0.1  1.2 0.8 0.1  1.3 0.8 0.1  1.4 0.8 0.1  1.5 0.8 0.1  1.6 0.8 0.1  1.7 0.8 0.1  1.8 0.8 0.1  1.9 0.8 0.1  2 0.8 0.1  2.1 0.8 0.1  2.2 0.8 0.1  2.3 0.8 0.1  2.4 0.8 0.1  2.5 0.8 0.1  2.6 0.8 0.1  2.7 0.8 0.1  2.8 0.8 0.1  2.9 0.8 0.1  3 0.8 0.1  3.1 0.8 0.1  3.2 0.8 0.1  3.3 0.8 0.1  3.4 0.8 0.1  3.5 0.8 0.1  3.6 0.8 0.1  3.7 0.8 0.1  3.8 0.8 0.1  3.9 0.8 0.1  4 0.8 0.1  0 0.9 0.1  0.1 0.9 0.1  0.2 0.9 0.1  0.3 0.9 0.1  0.4 0.9 0.1  0.5 0.9 0.1  0.6 0.9 0.1  0.7 0.9 0.1  0.8 0.9 0.1  0.9 0.9 0.1  1 0.9 0.1  1.1 0.9 0.1  1.2 0.9 0.1  1.3 0.9 0.1  1.4 0.9 0.1  1.5 0.9 0.1  1.6 0.9 0.1  1.7 0.9 0.1  1.8 0.9 0.1  1.9 0.9 0.1  2 0.9 0.1  2.1 0.9 0.1  2.2 0.9 0.1  2.3 0.9 0.1  2.4 0.9 0.1  2.5 0.9 0.1  2.6 0.9 0.1  2.7 0.9 0.1  2.8 0.9 0.1  2.9 0.9 0.1  3 0.9 0.1  3.1 0.9 0.1  3.2 0.9 0.1  3.3 0.9 0.1  3.4 0.9 0.1  3.5 0.9 0.1  3.6 0.9
[...]
<PointData  Vectors="f_5"> 
<DataArray  type="Float64"  Name="f_5"  NumberOfComponents="3" format="ascii">0.0000000000000000e+00 0.0000000000000000e+00 0.0000000000000000e+00  -2.2272497881049711e-02 -8.0686683576586763e-03 -1.3565825469228911e-02  -4.0437188962004378e-02 -1.5995075229413635e-02 -1.9155858752980575e-02  -5.7353192829944923e-02 -2.7342977638090477e-02 -2.1601555357891131e-02  -7.3862623833349197e-02 -4.2341877075110515e-02 -2.2291440871696523e-02  -9.0252413327811865e-02 -6.0736994471161196e-02 -2.1933204366340456e-02  -1.0661620401898655e-01 -8.2213982400618474e-02 -2.0955623962872861e-02  -1.2297875209917600e-01 -1.0648739426177950e-01 -1.9627006740599376e-02  -1.3934379602882807e-01 -1.3331553518581252e-01 -1.8114040123009406e-02  -1.5571172402232580e-01 -1.6249547488015262e-01 -1.6518023269717335e-02  -1.7208474596076720e-01 -1.9385380680197992e-01 -1.4898582279923965e-02  -1.8846718993574937e-01 -2.2723814240849324e-01 -1.3289325044982559e-02  -2.0486425308779133e-01 -2.6251064287866166e-01 -1.1708061974973432e-02  -2.2128058550045557e-01 -2.9954356885544364e-01 -1.0163346270986230e-02  -2.3771919825008128e-01 -3.3821642767914756e-01 -8.6585522490696589e-03  -2.5418080024533413e-01 -3.7841425380313026e-01 -7.1943401382303712e-03  -2.7066351708259384e-01 -4.2002663589364231e-01 -5.7700897006524024e-03  -2.8716290027082192e-01 -4.6294720651624255e-01 -4.3846938252822742e-03  -3.0367213516950886e-01 -5.0707340123657374e-01 -3.0369682214580066e-03  -3.2018237196262533e-01 -5.5230636360732255e-01 -1.7258402507324367e-03  -3.3668312310048282e-01 -5.9855092153592238e-01 -4.5041745167582374e-04  -3.5316268771565495e-01 -6.4571559298882175e-01 7.9000445470254880e-04  -3.6960857697613431e-01 -6.9371259936945584e-01 1.9959600921245209e-03  -3.8600792415761781e-01 -7.4245787702059618e-01 3.1678412848093851e-03  -4.0234786996132937e-01 -7.9187108403075279e-01 4.3059233110534258e-03  -4.1861591797007658e-01 -8.4187560289396579e-01 5.4103868005086746e-03  -4.3480025776121162e-01 -8.9239854092157334e-01 6.4813342174726563e-03  -4.5089005460675158e-01 -9.4337073046145348e-01 7.5188011524465418e-03  -4.6687570532727540e-01 -9.9472673040983384e-01 8.5227632137962073e-03  -4.8274906017042052e-01 -1.0464048294304304e+00 9.4931396788191114e-03  -4.9850361117780545e-01 -1.0983470498565475e+00 1.0429795684791923e-02  -5.1413464948266341e-01 -1.1504991497192254e+00 1.1332546177283130e-02  -5.2963939937484239e-01 -1.2028106196288348e+00 1.2201167954591044e-02  -5.4501714932028700e-01 -1.2552346738537867e+00 1.3035432402794917e-02  -5.6026942493352816e-01 -1.3077282467238271e+00 1.3835183249588648e-02  -5.7540029349085242e-01 -1.3602520382622274e+00 1.4600504236921512e-02  -5.9041696152273559e-01 -1.4127707280405850e+00 1.5332054496509871e-02  -6.0533092895907126e-01 -1.4652536264676448e+00 1.6031694019779136e-02  -6.2016006902744547e-01 -1.5176762841783769e+00 1.6703562570721326e-02  -6.3493184034152439e-01 -1.5700237529755108e+00 1.7355821534211353e-02  -6.4968305659604120e-01 -1.6222934378223628e+00 1.8005221347093460e-02  0.0000000000000000e+00 0.0000000000000000e+00 0.0000000000000000e+00  -1.5654070016881894e-02 -3.6204591987905625e-03 -1.1731973138628185e-02  -2.9224683046911989e-02 -1.1937964213017353e-02 -1.5927180036898487e-02  -4.2086847147323705e-02 -2.4091211085471142e-02 -1.7739313483728751e-02  -5.4857028356912509e-02 -3.9976322788081976e-02 -1.8188445273760463e-02  -6.7803691358513857e-02 -5.9305592410082986e-02 -1.7808990508566217e-02  -8.1018130106370254e-02 -8.1751465435293158e-02 -1.6934051675404474e-02  -9.4512856903318468e-02 -1.0701421095058090e-01 -1.5774939152047748e-02  -1.0827145769884103e-01 -1.3483815995197007e-01 -1.4464231567884425e-02  -1.2227127276498923e-01 -1.6500824031658887e-01 -1.3083225996909928e-02  -1.3649202840263394e-01 -1.9734107662327391e-01 -1.1680208064165342e-02  -1.5091778855455049e-01 -2.3167625592845076e-01 -1.0282662309157049e-02  -1.6553615875381589e-01 -2.6786950095180373e-01 -8.9053316895882986e-03  -1.8033670243761213e-01 -3.0578790854881777e-01 -7.5554282828241993e-03  -1.9530944371739364e-01 -3.4530687057424586e-01 -6.2359150765869059e-03  -2.1044376734016271e-01 -3.8630819826534107e-01 -4.9475087468565729e-03  -2.2572775885240828e-01 -4.2867903876753422e-01 -3.6898556429932191e-03  -2.4114791868634883e-01 -4.7231127954672858e-01 -2.4621887953131592e-03  -2.5668915362498890e-01 -5.1710123493971960e-01 -1.2636701585420531e-03  -2.7233495417134157e-01 -5.6294948488736374e-01 -9.3549766374062784e-05  -2.8806768410718486e-01 -6.0976078881325624e-01 1.0487759584293639e-03  -3.0386892818103672e-01 -6.5744403211340630e-01 2.1637572213805147e-03  -3.1971986094279009e-01 -7.0591218393462107e-01 3.2517066933923024e-03  -3.3560161293640256e-01 -7.5508225719490774e-01 4.3128226930372170e-03  -3.5149561989482453e-01 -8.0487526838858214e-01 5.3472120081388772e-03  -3.6738394690277598e-01 -8.5521619786574454e-01 6.3549090609417783e-03  -3.8324958344246568e-01 -9.0603395244014895e-01 7.3358904770761402e-03  -3.9907670745692897e-01 -9.5726133226245735e-01 8.2900853029151417e-03  -4.1485091754474451e-01 -1.0088350034315305e+00 9.2173817387264743e-03  -4.3055943249465423e-01 -1.0606954771349930e+00 1.0117631781894799e-02  -4.4619125688582378e-01 -1.1127870955071595e+00 1.0990656044057455e-02  -4.6173731086015335e-01 -1.1650580243629771e+00 1.1836252748007637e-02  -4.7719052236593235e-01 -1.2174602545984741e+00 1.2654218270739119e-02  -4.9254588333660371e-01 -1.2699496196707547e+00 1.3444392661330100e-02  -5.0780048193081340e-01 -1.3224858506607495e+00 1.4206753801588763e-02  -5.2295354966367180e-01 -1.3750327203167192e+00 1.4941599915862769e-02  -5.3800662006885824e-01 -1.4275583821921682e+00 1.5649882355307145e-02  -5.5296401129332240e-01 -1.4800360929271845e+00 1.6333772455593445e-02  -5.6783407098823813e-01 -1.5324455781204145e+00 1.6997530570252710e-02  -5.8263208994214088e-01 -1.5847751724420225e+00 1.7648491613014322e-02  -5.9738768831696687e-01 -1.6370238567193245e+00 1.8295622376001582e-02  0.0000000000000000e+00 0.0000000000000000e+00 0.0000000000000000e+00  -1.0762713206701748e-02 -1.7422043698525299e-03 -8.6900391777998548e-03  -1.9784637627838157e-02 -9.5955844397170136e-03 -1.2053325989100496e-02  -2.8791551299384065e-02 -2.2167576101880169e-02 -1.3396419431864259e-02  -3.8060381868350514e-02 -3.8695357603124862e-02 -1.3671617267467096e-02  -4.7735332472514783e-02 -5.8747571193678308e-02 -1.3312431912445050e-02  -5.7880474720178557e-02 -8.1967166442024036e-02 -1.2571589263410132e-02  -6.8508329219604938e-02 -1.0804353415391846e-01 -1.1607667721237471e-02  -7.9604728898342636e-02 -1.3671049455271581e-01 -1.0520923070231369e-02  -9.1144979082776648e-02 -1.6774121577145715e-01 -9.3737389503474027e-03  -1.0310235963085021e-01 -2.0094051141163477e-01 -8.2038600874738531e-03  -1.1545158060896583e-01 -2.3613714376984535e-01 -7.0332553986309334e-03  -1.2816947100358414e-01 -2.7317748970790956e-01 -5.8740499902507929e-03  -1.4123443762180649e-01 -3.1192088391550576e-01 -4.7324324775316375e-03  -1.5462557831134596e-01 -3.5223644560509842e-01 -3.6111669020956758e-03  -1.6832188249371918e-01 -3.9400103331648711e-01 -2.5111588491697262e-03  -1.8230168196764740e-01 -4.3709798042254266e-01 -1.4323957674748837e-03  -1.9654237297254176e-01 -4.8141633395673239e-01 -3.7448509844204453e-04  -2.1102036771545038e-01 -5.2685039871294492e-01 6.6305741901898584e-04  -2.2571121459316432e-01 -5.7329945600266619e-01 1.6806684091529639e-03  -2.4058982871190870e-01 -6.2066757660102623e-01 2.6786818409785290e-03  -2.5563078508572362e-01 -6.6886348163091325e-01 3.6573183853195988e-03  -2.7080863935443994e-01 -7.1780042694585566e-01 4.6166955113467493e-03  -2.8609825196242139e-01 -7.6739609960909139e-01 5.5568450875503146e-03  -3.0147510044576192e-01 -8.1757252231628974e-01 6.4777316304570169e-03  -3.1691557073256665e-01 -8.6825596527169724e-01 7.3792680833763211e-03  -3.3239722250466658e-01 -9.1937686661058271e-01 8.2613280937053127e-03  -3.4789902611715973e-01 -9.7086976295374383e-01 9.1237548891702474e-03  -3.6340156967354070e-01 -1.0226732317229437e+00 9.9663675428079482e-03  -3.7888723483394948e-01 -1.0747298468785025e+00 1.0788966084749852e-02  -3.9434033890919129e-01 -1.1269861501198932e+00 1.1591337988229398e-02  -4.0974723888890163e-01 -1.1793926406839692e+00 1.2373270537082129e-02  -4.2509639073253136e-01 -1.2319037890975504e+00 1.3134577131026190e-02  -4.4037835611666815e-01 -1.2844780839741630e+00 1.3875151487917894e-02  -4.5558575328772621e-01 -1.3370781261630900e+00 1.4595072601768051e-02  -4.7071316868638119e-01 -1.3896707895370268e+00 1.5294794837006109e-02  -4.8575710009883039e-01 -1.4422274646012465e+00 1.5975467927744114e-02  -5.0071611898534896e-01 -1.4947243616139989e+00 1.6639426815716181e-02  -5.1559165880872493e-01 -1.5471426793869836e+00 1.7290821508521147e-02  -5.3039023676091424e-01 -1.5994678210252207e+00 1.7935998807606688e-02  -5.4512939225973767e-01 -1.6516843961392476e+00 1.8580664756571438e-02  0.0000000000000000e+00 0.0000000000000000e+00 0.0000000000000000e+00  -6.5025003755768479e-03 -1.1943300811243388e-03 -5.6046131579539872e-03  -1.1714668021825305e-02 -8.8208451346410855e-03 -7.8958817866287851e-03  -1.7085168234408199e-02 -2.1565024462667257e-02 -8.8335234585979142e-03  -2.2950583623005415e-02 -3.8538761909471149e-02 -8.9886850533882432e-03  -2.9411342817193424e-02 -5.9160288930810247e-02 -8.6798060012563891e-03  -3.6512379162241593e-02 -8.3016701242618007e-02 -8.0901459797130086e-03  -4.4267493816812289e-02 -1.0977839324549053e-01 -7.3322167400769848e-03  -5.2669147269336927e-02 -1.3916879196474730e-01 -6.4771488047982786e-03  -6.1697042890907744e-02 -1.7095108226518893e-01 -5.5699044887239793e-03  -7.1324535118112944e-02 -2.0491939867338535e-01 -4.6383984772141122e-03  -8.1522477369928861e-02 -2.4089180778179453e-01 -3.6994408251171582e-03  -9.2261058445340549e-02 -2.7870473433165105e-01 -2.7627323793789904e-03  -1.0351039623034418e-01 -3.1820875851592428e-01 -1.8335525899800193e-03  -1.1524051990742226e-01 -3.5926561038335930e-01 -9.1453829932698161e-04  -1.2742115011917010e-01 -4.0174610971257940e-01 -6.8298049202287907e-06  -1.4002149701781452e-01 -4.4552879385579797e-01 8.8921624224836695e-04  -1.5301016772221157e-01 -4.9049901417399366e-01 1.7736027754609383e-03  -1.6635520070375528e-01 -5.3654833456402196e-01 2.6464546146989622e-03  -1.8002420888868692e-01 -5.8357411592808095e-01 3.5078963707532388e-03  -1.9398460075720536e-01 -6.3147921103849358e-01 4.3579986578671185e-03  -2.0820384849499052e-01 -6.8017172379488944e-01 5.1967621492861240e-03  -2.2264977738759892e-01 -7.2956480677252722e-01 6.0241206594621507e-03  -2.3729085724425419e-01 -7.7957648349253539e-01 6.8399522079149186e-03  -2.5209648277377072e-01 -8.3012948922186236e-01 7.6440920026932362e-03  -2.6703723475110713e-01 -8.8115112814006658e-01 8.4363443429544566e-03  -2.8208511735334096e-01 -9.3257314673404801e-01 9.2164922443353607e-03  -2.9721376931510213e-01 -9.8433162424623954e-01 9.9843046394128398e-03  -3.1239864772514747e-01 -1.0363668815616132e+00 1.0739541691016805e-02  -3.2761718348445801e-01 -1.0886234105316528e+00 1.1481959420164421e-02  -3.4284890670988188e-01 -1.1410498267018272e+00 1.2211315845837033e-02  -3.5807553865349867e-01 -1.1935988498130115e+00 1.2927382582641806e-02  -3.7328104400032441e-01 -1.2462273178509793e+00 1.3629968866236955e-02  -3.8845163408386513e-01 -1.2988962401447564e+00 1.4318969832579126e-02  -4.0357570947596699e-01 -1.3515708886869240e+00 1.4994457809452294e-02  -4.1864373550637901e-01 -1.4042209048188805e+00 1.5656843200566588e-02  -4.3364806995266580e-01 -1.4568203408751179e+00 1.6307134872447140e-02  -4.4858282512366543e-01 -1.5093474192749852e+00 1.6947313221414809e-02  -4.6344394025246760e-01 -1.5617834560004211e+00 1.7580748225167944e-02  -4.7822966074596590e-01 -1.6141094577089692e+00 1.8212275818800690e-02  -4.9294130246512285e-01 -1.6662954770652139e+00 1.8845651857272223e-02  0.0000000000000000e+00 0.0000000000000000e+00 0.0000000000000000e+00  -2.5552496089795251e-03 -1.3927842168352947e-03 -2.5747304592605999e-03  -4.3531362723431945e-03 -9.1648961813291917e-03 -3.7077817416679279e-03  -6.3718780217999031e-03 -2.2145912050609701e-02 -4.1877910219078494e-03  -8.9576198826338948e-03 -3.9485049743452981e-02 -4.2298702372845463e-03  -1.2257642337019033e-02 -6.0572667476969828e-02 -3.9841099436475702e-03  -1.6336814943459687e-02 -8.4963137045183462e-02 -3.5536516897398808e-03  -2.1222088767932419e-02 -1.1231031242355397e-01 -3.0057266646885852e-03  -2.6916510057202983e-02 -1.4232826347191851e-01 -2.3843019525641523e-03  -3.3406803773266887e-02 -1.7477169797532824e-01 -1.7182247026892583e-03  -4.0669106586033912e-02 -2.0942540450802183e-01 -1.0262333575040620e-03  -4.8673137968147116e-02 -2.4609751283763670e-01 -3.2023414365417679e-04  -5.7384898879698720e-02 -2.8461466320788809e-01 3.9244194850284771e-04  -6.6768228801651799e-02 -3.2481841408384587e-01 1.1074541985094878e-03  -7.6785621106922622e-02 -3.6656258605503711e-01 1.8223472386104229e-03  -8.7398631182063702e-02 -4.0971133147574823e-01 2.5357990654838896e-03  -9.8568104642014986e-02 -4.5413774936264212e-01 3.2471267119991644e-03  -1.1025435643194949e-01 -4.9972289197544606e-01 3.9559752168149050e-03  -1.2241736258070234e-01 -5.4635504109907496e-01 4.6621324487254026e-03  -1.3501698421930342e-01 -5.9392916395312922e-01 5.3654268177861933e-03  -1.4801322148240925e-01 -6.4234648649997073e-01 6.0656769912451310e-03  -1.6136648586307481e-01 -6.9151414371372399e-01 6.7626723525874063e-03  -1.7503787782872851e-01 -7.4134488204224769e-01 7.4561702199432258e-03  -1.8898945822761276e-01 -7.9175679978636548e-01 8.1459010818473992e-03  -2.0318450495656296e-01 -8.4267311770295183e-01 8.8315767076041166e-03  -2.1758774933089559e-01 -8.9402197602100808e-01 9.5128983465406960e-03  -2.3216558906914050e-01 -9.4573625624117308e-01 1.0189563705697182e-02  -2.4688627662287460e-01 -9.9775342733222827e-01 1.0861272294626759e-02  -2.6172008276286246e-01 -1.0500154168040208e+00 1.1527729307132724e-02  -2.7663943594405527e-01 -1.1024685080196246e+00 1.2188648705883426e-02  -2.9161903803636635e-01 -1.1550632662248763e+00 1.2843756826243363e-02  -3.0663595639262842e-01 -1.2077544970074563e+00 1.3492798901456122e-02  -3.2166969044002486e-01 -1.2605012413711210e+00 1.4135552784871316e-02  -3.3670220680178248e-01 -1.3132668086416248e+00 1.4771857227164358e-02  -3.5171792792485573e-01 -1.3660188353619425e+00 1.5401666712021787e-02  -3.6670364191509475e-01 -1.4187293206356748e+00 1.6025150673719440e-02  -3.8164827549645536e-01 -1.4713744977248799e+00 1.6642858299662975e-02  -3.9654244483602286e-01 -1.5239342058389753e+00 1.7255958360093384e-02  -4.1137764437770818e-01 -1.5763900043003005e+00 1.7866505755069432e-02  -4.2614462808230552e-01 -1.6287202142718589e+00 1.8477493847755010e-02  -4.4082883383485416e-01 -1.6808865001511020e+00 1.9091749808514309e-02  0.0000000000000000e+00 0.0000000000000000e+00 0.0000000000000000e+00  1.2461095585397709e-03 -2.0859865978882799e-03 3.9596522785297398e-04  2.6965809566518160e-03 -1.0356404794001142e-02 4.2689665993670312e-04  3.8699162191144902e-03 -2.3740045735946166e-02 4.3414958285904889e-04  4.4539839197254953e-03 -4.1467924373907242e-02 5.2479064226945401e-04  4.2547336770623967e-03 -6.2975104288738815e-02 7.1461357526213850e-04  3.1651942126260093e-03 -8.7829794880852366e-02 9.9001511616495582e-04  1.1329282190100660e-03 -1.1568674043503738e-01 1.3319893012917897e-03  -1.8603101713817231e-03 -1.4625665081666828e-01 1.7237141070968356e-03  -5.8100221988772278e-03 -1.7928822932735522e-01 2.1519488849647229e-03  -1.0696340043236503e-02 -2.1455822857987530e-01 2.6068360404541691e-03  -1.6489168249828323e-02 -2.5186557481644911e-01 3.0813379694808506e-03  -2.3151740571280683e-02 -2.9102744744421238e-01 3.5706150595351967e-03  -3.0642989640715903e-02 -3.3187640211006825e-01 4.0714466635810445e-03  -3.8919076790367046e-02 -3.7425816426267700e-01 4.5817405429405570e-03  -4.7934375371473319e-02 -4.1802991685815494e-01 5.1001471465905758e-03  -5.7642127654663568e-02 -4.6305896944655345e-01 5.6257758335455437e-03  -6.7994922459351889e-02 -5.0922171932607463e-01 6.1579990026399481e-03  -7.8945081648263041e-02 -5.5640283098985033e-01 6.6963256123759932e-03  -9.0445002224817050e-02 -6.0449457528644213e-01 7.2403256067547191e-03  -1.0244747493142345e-01 -6.5339628443232078e-01 7.7895892553199115e-03  -1.1490598591537894e-01 -7.0301389185718000e-01 8.3437088385932036e-03  -1.2777500122665161e-01 -7.5325953601782969e-01 8.9022735202487161e-03  -1.4101023152799783e-01 -8.0405121471217322e-01 9.4648711688071503e-03  -1.5456887430826061e-01 -8.5531248145151451e-01 1.0031093160159682e-02  -1.6840983179299099e-01 -9.0697217867665803e-01 1.0600539822357981e-02  -1.8249390393467105e-01 -9.5896420460284082e-01 1.1172825275081110e-02  -1.9678395701846466e-01 -1.0112273117439046e+00 1.1747581094682921e-02  -2.1124506945383190e-01 -1.0637049360900019e+00 1.2324458626321682e-02  -2.2584465727427938e-01 -1.1163450567823989e+00 1.2903129979453190e-02  -2.4055258278875408e-01 -1.1691000870914290e+00 1.3483287883753933e-02  -2.5534125061292651e-01 -1.2219267984361903e+00 1.4064644753601075e-02  -2.7018569530074721e-01 -1.2747862793226743e+00 1.4646931647446529e-02  -2.8506366185320631e-01 -1.3276439281004264e+00 1.5229898560542977e-02  -2.9995566878985247e-01 -1.3804694663214363e+00 1.5813319200464165e-02  -3.1484501006482873e-01 -1.4332369236458997e+00 1.6397007219065986e-02  -3.2971757260588502e-01 -1.4859244527515330e+00 1.6980858335739903e-02  -3.4456119776291061e-01 -1.5385136185949142e+00 1.7564941206288352e-02  -3.5936409709588729e-01 -1.5909873509685339e+00 1.8149652177224990e-02  -3.7411133216388404e-01 -1.6433247000240896e+00 1.8735924893875894e-02  -3.8877589276024183e-01 -1.6954873917943805e+00 1.9326136353698727e-02  0.0000000000000000e+00 0.0000000000000000e+00 0.0000000000000000e+00  5.0269428286948258e-03 -3.2002232617080271e-03 3.3103547570469774e-03  9.7190350121807711e-03 -1.2286276275203368e-02 4.4718312254104576e-03  1.4049145969709286e-02 -2.6244679281665531e-02 4.9675941938320967e-03  1.7753069141031450e-02 -4.4419593029588027e-02 5.2078643294109954e-03  2.0608106362120931e-02 -6.6336290438349099e-02 5.3596583588051529e-03  2.2470881768353521e-02 -9.1613307462831986e-02 5.4950018137844402e-03  2.3262438889229159e-02 -1.1992668484835611e-01 5.6434248176390409e-03  2.2948275805829491e-02 -1.5099245021076677e-01 5.8155460553744528e-03  2.1523714511982935e-02 -1.8455656756993163e-01 6.0138355554900675e-03  1.9004287810171282e-02 -2.2038898836258147e-01 6.2374817218431950e-03  1.5419318896339233e-02 -2.5827996293198618e-01 6.4845955905909886e-03  1.0807516302092857e-02 -2.9803746405119186e-01 6.7531719211842639e-03  5.2139210597964914e-03 -3.3948515550535713e-01 7.0414530101117929e-03  -1.3122117574550713e-03 -3.8246068216444634e-01 7.3480112617808936e-03  -8.7188912749718503e-03 -4.2681420498374695e-01 7.6717122790911944e-03  -1.6952441684348129e-02 -4.7240714918175264e-01 8.0116405152051238e-03  -2.5958275433269545e-02 -5.1911114053256380e-01 8.3670260603333543e-03  -3.5681488855749531e-02 -5.6680710301492709e-01 8.7371875172472906e-03  -4.6067343549821470e-02 -6.1538449081662305e-01 9.1214938121670971e-03  -5.7061671336057808e-02 -6.6474063025543306e-01 9.5193423487028618e-03  -6.8611224229960230e-02 -7.1478015136901252e-01 9.9301491523467889e-03  -8.0663981063862786e-02 -7.6541449341889123e-01 1.0353346732524320e-02  -9.3169417020107476e-02 -8.1656147252700728e-01 1.0788386225347195e-02  -1.0607873971086776e-01 -8.6814490279334622e-01 1.1234741382178965e-02  -1.1934509440230087e-01 -9.2009426452796006e-01 1.1691912851480066e-02  -1.3292374081024708e-01 -9.7234441482412204e-01 1.2159431853395703e-02  -1.4677220420380749e-01 -1.0248353368057745e+00 1.2636862744138997e-02  -1.6085040419473642e-01 -1.0775119246996425e+00 1.3123804115623798e-02  -1.7512076558111397e-01 -1.1303238025745066e+0